<?xml version="1.0"?>
<VTKFile type="UnstructuredGrid"  version="0.1"  >
<UnstructuredGrid>
<Piece  NumberOfPoints="165" NumberOfCells="256">
<Points>
<DataArray  type="Float64"  NumberOfComponents="3"  format="ascii">0 0 0  2 0 0  2 1 0  2 2 0  0 2 0  0 1 0  0.4999999999988219 0 0  0.9999999999973842 0 0  1.499999999998681 0 0  2 0.02781662118226185 0  2 0.05841490432699235 0  2 0.09207301548716586 0  2 0.1290969376898501 0  2 0.1698232521596229 0  2 0.214622198078255 0  2 0.263901038853365 0  2 0.3181077634719738 0  2 0.377735160202784 0  2 0.4433252969163891 0  2 0.5154744472750914 0  2 0.5948385124917116 0  2 0.6821389840404095 0  2 0.778169502336751 0  2 0.8838030724121422 0  2 1.116196927167973 0  2 1.221830497486254 0  2 1.317861015984792 0  2 1.405161487700385 0  2 1.484525553053348 0  2 1.556674703544246 0  2 1.622264840323494 0  2 1.681892237122333 0  2 1.736098961792252 0  2 1.785377802604432 0  2 1.830176748548059 0  2 1.870903063032639 0  2 1.907926985241549 0  2 1.941585096400842 0  2 1.972183379538844 0  1.500000000000694 2 0  1.000000000004119 2 0  0.500000000002081 2 0  0 1.972183378817708 0  0 1.941585095672932 0  0 1.907926984512722 0  0 1.870903062309992 0  0 1.830176747840114 0  0 1.785377801921358 0  0 1.736098961146102 0  0 1.681892236527323 0  0 1.622264839796312 0  0 1.556674703082417 0  0 1.484525552723596 0  0 1.405161487507133 0  0 1.317861015958639 0  0 1.221830497662552 0  0 1.116196927587473 0  0 0.8838030728317091 0  0 0.7781695025141827 0  0 0.682138984016358 0  0 0.5948385123013449 0  0 0.5154744469488468 0  0 0.4433252964578244 0  0 0.3777351596781195 0  0 0.3181077628789705 0  0 0.2639010382087844 0  0 0.2146221973963757 0  0 0.1698232514525531 0  0 0.1290969369678056 0  0 0.09207301475875462 0  0 0.05841490359934209 0  0 0.02781662046123923 0  0.4999999999988672 0.02781662064149489 0  0.4999999999989171 0.05841490378125466 0  0.4999999999989719 0.09207301494085744 0  0.4999999999990323 0.1290969371483167 0  0.4999999999990987 0.1698232516293205 0  0.4999999999991717 0.2146221975668455 0  0.4999999999992519 0.2639010383699296 0  0.4999999999993403 0.3181077630272213 0  0.4999999999994374 0.3777351598092856 0  0.4999999999995443 0.4433252965724655 0  0.499999999999662 0.5154744470304079 0  0.4999999999997911 0.5948385123489367 0  0.4999999999999334 0.6821389840223711 0  0.5000000000000899 0.7781695024698247 0  0.5000000000002622 0.8838030727268174 0  0.5000000000004514 1 0  0.5000000000006408 1.116196927482599 0  0.5000000000008129 1.221830497618477 0  0.5000000000009694 1.317861015965177 0  0.5000000000011118 1.405161487555446 0  0.500000000001241 1.484525552806034 0  0.5000000000013587 1.556674703197874 0  0.5000000000014655 1.622264839928107 0  0.5000000000015625 1.681892236676075 0  0.5000000000016509 1.73609896130764 0  0.5000000000017313 1.785377802092127 0  0.5000000000018043 1.8301767480171 0  0.5000000000018707 1.870903062490654 0  0.5000000000019309 1.907926984694928 0  0.5000000000019857 1.941585095854909 0  0.5000000000020357 1.972183378997992 0  0.9999999999974778 0.02781662082175054 0  0.9999999999975808 0.05841490396316722 0  0.9999999999976943 0.09207301512296022 0  0.9999999999978191 0.1290969373288278 0  0.9999999999979561 0.169823251806088 0  0.9999999999981068 0.2146221977373153 0  0.9999999999982727 0.2639010385310747 0  0.9999999999984555 0.3181077631754722 0  0.9999999999986562 0.3777351599404518 0  0.9999999999988769 0.4433252966871067 0  0.99999999999912 0.5154744471119691 0  0.9999999999993872 0.5948385123965284 0  0.9999999999996811 0.6821389840283839 0  1.000000000000004 0.7781695024254669 0  1.000000000000361 0.8838030726219257 0  1.000000000000751 1 0  1.000000000001143 1.116196927377723 0  1.000000000001498 1.221830497574403 0  1.000000000001822 1.317861015971715 0  1.000000000002116 1.405161487603759 0  1.000000000002383 1.484525552888472 0  1.000000000002626 1.556674703313331 0  1.000000000002847 1.622264840059903 0  1.000000000003048 1.681892236824828 0  1.00000000000323 1.736098961469177 0  1.000000000003396 1.785377802262895 0  1.000000000003547 1.830176748194086 0  1.000000000003684 1.870903062671315 0  1.000000000003809 1.907926984877135 0  1.000000000003922 1.941585096036887 0  1.000000000004025 1.972183379178276 0  1.499999999998709 0.02781662100200619 0  1.49999999999874 0.05841490414507979 0  1.499999999998774 0.09207301530506307 0  1.499999999998811 0.129096937509339 0  1.499999999998852 0.1698232519828555 0  1.499999999998898 0.2146221979077852 0  1.499999999998947 0.2639010386922198 0  1.499999999999001 0.3181077633237229 0  1.499999999999062 0.3777351600716179 0  1.499999999999128 0.4433252968017479 0  1.4999999999992 0.5154744471935303 0  1.49999999999928 0.5948385124441201 0  1.499999999999368 0.6821389840343968 0  1.499999999999464 0.778169502381109 0  1.499999999999571 0.883803072517034 0  1.499999999999688 1 0  1.499999999999804 1.116196927272848 0  1.499999999999911 1.221830497530328 0  1.500000000000008 1.317861015978253 0  1.500000000000096 1.405161487652072 0  1.500000000000175 1.48452555297091 0  1.500000000000248 1.556674703428789 0  1.500000000000314 1.622264840191698 0  1.500000000000374 1.681892236973581 0  1.500000000000429 1.736098961630715 0  1.500000000000478 1.785377802433664 0  1.500000000000523 1.830176748371073 0  1.500000000000564 1.870903062851977 0  1.500000000000602 1.907926985059342 0  1.500000000000635 1.941585096218864 0  1.500000000000666 1.97218337935856 0  </DataArray>
</Points>
<Cells>
<DataArray  type="UInt32"  Name="connectivity"  format="ascii">0 6 71  6 71 72  70 71 72  70 72 73  69 70 73  69 73 74  68 69 74  68 74 75  67 68 75  67 75 76  66 67 76  66 76 77  65 66 77  65 77 78  64 65 78  64 78 79  63 64 79  63 79 80  62 63 80  62 80 81  61 62 81  61 81 82  60 61 82  60 82 83  59 60 83  59 83 84  58 59 84  58 84 85  57 58 85  57 85 86  5 57 86  5 86 87  5 56 87  56 87 88  55 56 88  55 88 89  54 55 89  54 89 90  53 54 90  53 90 91  52 53 91  52 91 92  51 52 92  51 92 93  50 51 93  50 93 94  49 50 94  49 94 95  48 49 95  48 95 96  47 48 96  47 96 97  46 47 97  46 97 98  45 46 98  45 98 99  44 45 99  44 99 100  43 44 100  43 100 101  42 43 101  42 101 102  4 42 102  4 41 102  6 7 72  7 72 103  72 73 103  73 103 104  73 74 104  74 104 105  74 75 105  75 105 106  75 76 106  76 106 107  76 77 107  77 107 108  77 78 108  78 108 109  78 79 109  79 109 110  79 80 110  80 110 111  80 81 111  81 111 112  81 82 112  82 112 113  82 83 113  83 113 114  83 84 114  84 114 115  84 85 115  85 115 116  85 86 116  86 116 117  86 87 117  87 117 118  87 88 118  88 118 119  88 89 119  89 119 120  89 90 120  90 120 121  90 91 121  91 121 122  91 92 122  92 122 123  92 93 123  93 123 124  93 94 124  94 124 125  94 95 125  95 125 126  95 96 126  96 126 127  96 97 127  97 127 128  97 98 128  98 128 129  98 99 129  99 129 130  99 100 130  100 130 131  100 101 131  101 131 132  101 102 132  102 132 133  41 102 133  40 41 133  7 8 103  8 103 134  103 104 134  104 134 135  104 105 135  105 135 136  105 106 136  106 136 137  106 107 137  107 137 138  107 108 138  108 138 139  108 109 139  109 139 140  109 110 140  110 140 141  110 111 141  111 141 142  111 112 142  112 142 143  112 113 143  113 143 144  113 114 144  114 144 145  114 115 145  115 145 146  115 116 146  116 146 147  116 117 147  117 147 148  117 118 148  118 148 149  118 119 149  119 149 150  119 120 150  120 150 151  120 121 151  121 151 152  121 122 152  122 152 153  122 123 153  123 153 154  123 124 154  124 154 155  124 125 155  125 155 156  125 126 156  126 156 157  126 127 157  127 157 158  127 128 158  128 158 159  128 129 159  129 159 160  129 130 160  130 160 161  130 131 161  131 161 162  131 132 162  132 162 163  132 133 163  133 163 164  40 133 164  39 40 164  1 8 134  1 9 134  9 134 135  9 10 135  10 135 136  10 11 136  11 136 137  11 12 137  12 137 138  12 13 138  13 138 139  13 14 139  14 139 140  14 15 140  15 140 141  15 16 141  16 141 142  16 17 142  17 142 143  17 18 143  18 143 144  18 19 144  19 144 145  19 20 145  20 145 146  20 21 146  21 146 147  21 22 147  22 147 148  22 23 148  23 148 149  2 23 149  2 149 150  2 24 150  24 150 151  24 25 151  25 151 152  25 26 152  26 152 153  26 27 153  27 153 154  27 28 154  28 154 155  28 29 155  29 155 156  29 30 156  30 156 157  30 31 157  31 157 158  31 32 158  32 158 159  32 33 159  33 159 160  33 34 160  34 160 161  34 35 161  35 161 162  35 36 162  36 162 163  36 37 163  37 163 164  37 38 164  38 39 164  3 38 39  </DataArray>
<DataArray  type="UInt32"  Name="offsets"  format="ascii">3 6 9 12 15 18 21 24 27 30 33 36 39 42 45 48 51 54 57 60 63 66 69 72 75 78 81 84 87 90 93 96 99 102 105 108 111 114 117 120 123 126 129 132 135 138 141 144 147 150 153 156 159 162 165 168 171 174 177 180 183 186 189 192 195 198 201 204 207 210 213 216 219 222 225 228 231 234 237 240 243 246 249 252 255 258 261 264 267 270 273 276 279 282 285 288 291 294 297 300 303 306 309 312 315 318 321 324 327 330 333 336 339 342 345 348 351 354 357 360 363 366 369 372 375 378 381 384 387 390 393 396 399 402 405 408 411 414 417 420 423 426 429 432 435 438 441 444 447 450 453 456 459 462 465 468 471 474 477 480 483 486 489 492 495 498 501 504 507 510 513 516 519 522 525 528 531 534 537 540 543 546 549 552 555 558 561 564 567 570 573 576 579 582 585 588 591 594 597 600 603 606 609 612 615 618 621 624 627 630 633 636 639 642 645 648 651 654 657 660 663 666 669 672 675 678 681 684 687 690 693 696 699 702 705 708 711 714 717 720 723 726 729 732 735 738 741 744 747 750 753 756 759 762 765 768 </DataArray>
<DataArray  type="UInt8"  Name="types"  format="ascii">5 5 5 5 5 5 5 5 5 5 5 5 5 5 5 5 5 5 5 5 5 5 5 5 5 5 5 5 5 5 5 5 5 5 5 5 5 5 5 5 5 5 5 5 5 5 5 5 5 5 5 5 5 5 5 5 5 5 5 5 5 5 5 5 5 5 5 5 5 5 5 5 5 5 5 5 5 5 5 5 5 5 5 5 5 5 5 5 5 5 5 5 5 5 5 5 5 5 5 5 5 5 5 5 5 5 5 5 5 5 5 5 5 5 5 5 5 5 5 5 5 5 5 5 5 5 5 5 5 5 5 5 5 5 5 5 5 5 5 5 5 5 5 5 5 5 5 5 5 5 5 5 5 5 5 5 5 5 5 5 5 5 5 5 5 5 5 5 5 5 5 5 5 5 5 5 5 5 5 5 5 5 5 5 5 5 5 5 5 5 5 5 5 5 5 5 5 5 5 5 5 5 5 5 5 5 5 5 5 5 5 5 5 5 5 5 5 5 5 5 5 5 5 5 5 5 5 5 5 5 5 5 5 5 5 5 5 5 5 5 5 5 5 5 5 5 5 5 5 5 5 5 5 5 5 5 </DataArray>
</Cells>
<PointData  Scalars="f_225073"> 
<DataArray  type="Float64"  Name="f_225073"  format="ascii">9.9999999999999998e-17  9.9999999999999998e-17  9.5485665072526586e-07  9.9999999999999998e-17  9.9999999999999998e-17  9.5485665072526586e-07  9.9999999999999998e-17  9.9999999999999998e-17  9.9999999999999998e-17  6.2853558443509059e-12  2.3044481964876410e-11  8.0511447533842725e-11  2.8704024082168333e-10  1.0287551528343867e-09  3.6007539437658173e-09  1.1882241947253504e-08  3.5588484355073561e-08  9.3272709855558884e-08  2.0759082467343555e-07  3.8525445081113144e-07  5.9508997950672358e-07  7.7858677250154698e-07  8.9398298856134308e-07  9.4329358578334661e-07  9.4356548023462578e-07  8.9448307843171532e-07  7.7920944132461694e-07  5.9568417646783404e-07  3.8569968238485723e-07  2.0785603431767653e-07  9.3400656040171636e-08  3.5639901735110929e-08  1.1900085454431541e-08  3.6063218079714459e-09  1.0303821634468960e-09  2.8750228260467559e-10  8.0642880584771406e-11  2.3082527176619802e-11  6.2958145788688096e-12  9.9999999999999998e-17  9.9999999999999998e-17  9.9999999999999998e-17  6.2958145788688096e-12  2.3082527176619802e-11  8.0642880584771406e-11  2.8750228260467559e-10  1.0303821634468960e-09  3.6063218079714459e-09  1.1900085454431541e-08  3.5639901735110929e-08  9.3400656040171636e-08  2.0785603431767653e-07  3.8569968238485723e-07  5.9568417646783404e-07  7.7920944132461694e-07  8.9448307843171532e-07  9.4356548023462578e-07  9.4329358578334661e-07  8.9398298856134308e-07  7.7858677250154698e-07  5.9508997950672358e-07  3.8525445081113144e-07  2.0759082467343555e-07  9.3272709855558884e-08  3.5588484355073561e-08  1.1882241947253504e-08  3.6007539437658173e-09  1.0287551528343867e-09  2.8704024082168333e-10  8.0511447533842725e-11  2.3044481964876410e-11  6.2853558443509059e-12  6.2853557860553070e-12  2.3044482092295017e-11  8.0511447286461012e-11  2.8704024107667468e-10  1.0287551523523226e-09  3.6007539438448465e-09  1.1882241946043150e-08  3.5588484353936869e-08  9.3272709852726882e-08  2.0759082466943885e-07  3.8525445080667001e-07  5.9508997950139935e-07  7.7858677249500502e-07  8.9398298855466296e-07  9.4329358577574777e-07  9.5485665071809848e-07  9.4356548022639051e-07  8.9448307842383866e-07  7.7920944131669390e-07  5.9568417646027003e-07  3.8569968237798118e-07  2.0785603431303246e-07  9.3400656035710896e-08  3.5639901732305953e-08  1.1900085452135374e-08  3.6063218058554670e-09  1.0303821614168740e-09  2.8750228033330929e-10  8.0642878084982739e-11  2.3082523996183449e-11  6.2958114329074379e-12  6.2853558222091865e-12  2.3044481917770697e-11  8.0511447454161179e-11  2.8704024064601240e-10  1.0287551523556532e-09  3.6007539426731712e-09  1.1882241944719929e-08  3.5588484349898249e-08  9.3272709848094684e-08  2.0759082466214391e-07  3.8525445080237042e-07  5.9508997950047396e-07  7.7858677249885405e-07  8.9398298856062406e-07  9.4329358578294078e-07  9.5485665072517078e-07  9.4356548023443562e-07  8.9448307843294945e-07  7.7920944132815352e-07  5.9568417647485096e-07  3.8569968239358834e-07  2.0785603432830698e-07  9.3400656046677908e-08  3.5639901739192880e-08  1.1900085456486852e-08  3.6063218087286577e-09  1.0303821637796935e-09  2.8750228274713135e-10  8.0642880630102144e-11  2.3082527197023453e-11  6.2958146037530657e-12  6.2853558183115454e-12  2.3044482094522353e-11  8.0511447270531297e-11  2.8704024103261036e-10  1.0287551522302971e-09  3.6007539434329238e-09  1.1882241945201689e-08  3.5588484351497513e-08  9.3272709848713441e-08  2.0759082466320964e-07  3.8525445079911008e-07  5.9508997949588484e-07  7.7858677249159625e-07  8.9398298855365700e-07  9.4329358577548879e-07  9.5485665071852475e-07  9.4356548022705627e-07  8.9448307842483276e-07  7.7920944131968827e-07  5.9568417646668154e-07  3.8569968238631196e-07  2.0785603432180555e-07  9.3400656043049086e-08  3.5639901736194330e-08  1.1900085454289251e-08  3.6063218067419093e-09  1.0303821617101434e-09  2.8750228045807159e-10  8.0642878131816568e-11  2.3082524022061129e-11  6.2958114167529810e-12  </DataArray> 
</PointData> 
</Piece>
</UnstructuredGrid>
</VTKFile>