<?xml version="1.0"?>
<VTKFile type="UnstructuredGrid"  version="0.1"  >
<UnstructuredGrid>
<Piece  NumberOfPoints="4466" NumberOfCells="8228">
<Points>
<DataArray  type="Float64"  NumberOfComponents="3"  format="ascii">0.139 0 0  -0.139 0 0  0.111 0 0  -0.111 0 0  0 -0.139 0  0 -0.111 0  0.139 0.28 0  0.111 0.28 0  -0.139 0.28 0  -0.111 0.28 0  -0.139 0.2772000000000133 0  -0.139 0.2744000000000156 0  -0.139 0.271600000000018 0  -0.139 0.2688000000000217 0  -0.139 0.266000000000038 0  -0.139 0.2632000000000468 0  -0.139 0.2604000000000492 0  -0.139 0.2576000000000516 0  -0.139 0.254800000000054 0  -0.139 0.2520000000000564 0  -0.139 0.2492000000000588 0  -0.139 0.2464000000000611 0  -0.139 0.2436000000000635 0  -0.139 0.2408000000000709 0  -0.139 0.2380000000000802 0  -0.139 0.2352000000000921 0  -0.139 0.2324000000001043 0  -0.139 0.2296000000001082 0  -0.139 0.2268000000001192 0  -0.139 0.2240000000001323 0  -0.139 0.2212000000001416 0  -0.139 0.21840000000015 0  -0.139 0.2156000000001524 0  -0.139 0.2128000000001587 0  -0.139 0.210000000000168 0  -0.139 0.2072000000001774 0  -0.139 0.2044000000001836 0  -0.139 0.201600000000186 0  -0.139 0.1988000000001951 0  -0.139 0.1960000000002114 0  -0.139 0.1932000000002239 0  -0.139 0.1904000000002281 0  -0.139 0.1876000000002304 0  -0.139 0.1848000000002357 0  -0.139 0.1820000000002493 0  -0.139 0.1792000000002651 0  -0.139 0.1764000000002725 0  -0.139 0.1736000000002749 0  -0.139 0.1708000000002822 0  -0.139 0.168000000000298 0  -0.139 0.1652000000003117 0  -0.139 0.1624000000003169 0  -0.139 0.1596000000003193 0  -0.139 0.1568000000003234 0  -0.139 0.1540000000003327 0  -0.139 0.151200000000342 0  -0.139 0.1484000000003504 0  -0.139 0.1456000000003552 0  -0.139 0.1428000000003684 0  -0.139 0.1400000000003793 0  -0.139 0.1372000000003732 0  -0.139 0.1344000000003647 0  -0.139 0.1316000000003602 0  -0.139 0.1288000000003502 0  -0.139 0.1260000000003456 0  -0.139 0.1232000000003373 0  -0.139 0.1204000000003259 0  -0.139 0.1176000000003211 0  -0.139 0.1148000000003137 0  -0.139 0.1120000000003065 0  -0.139 0.1092000000003015 0  -0.139 0.106400000000292 0  -0.139 0.1036000000002874 0  -0.139 0.1008000000002779 0  -0.139 0.09800000000027287 0  -0.139 0.09520000000026577 0  -0.139 0.09240000000025839 0  -0.139 0.08960000000025362 0  -0.139 0.08680000000024216 0  -0.139 0.08400000000023394 0  -0.139 0.08120000000022939 0  -0.139 0.07840000000021943 0  -0.139 0.07560000000021488 0  -0.139 0.07280000000020645 0  -0.139 0.0700000000002004 0  -0.139 0.06720000000019433 0  -0.139 0.06440000000018589 0  -0.139 0.06160000000018134 0  -0.139 0.05880000000017141 0  -0.139 0.05600000000016683 0  -0.139 0.05320000000015862 0  -0.139 0.05040000000014716 0  -0.139 0.04760000000014239 0  -0.139 0.04480000000013501 0  -0.139 0.04200000000012791 0  -0.139 0.03920000000012291 0  -0.139 0.03640000000011337 0  -0.139 0.03360000000010885 0  -0.139 0.03080000000009933 0  -0.139 0.02800000000008024 0  -0.139 0.02520000000006006 0  -0.139 0.02240000000005682 0  -0.139 0.01960000000005918 0  -0.139 0.0168000000000581 0  -0.139 0.01400000000004015 0  -0.139 0.0112000000000243 0  -0.139 0.008400000000025387 0  -0.139 0.005600000000027749 0  -0.139 0.00280000000002234 0  0.139 0.002799999999994866 0  0.139 0.005599999999989789 0  0.139 0.008399999999984429 0  0.139 0.01119999999997854 0  0.139 0.0139999999999726 0  0.139 0.01679999999996711 0  0.139 0.01959999999996269 0  0.139 0.02239999999995932 0  0.139 0.02519999999995598 0  0.139 0.02799999999995264 0  0.139 0.03079999999994935 0  0.139 0.03359999999994638 0  0.139 0.03639999999994045 0  0.139 0.03919999999993277 0  0.139 0.04199999999992482 0  0.139 0.04479999999991541 0  0.139 0.04759999999990703 0  0.139 0.05039999999989928 0  0.139 0.05319999999988988 0  0.139 0.05599999999988128 0  0.139 0.05879999999987359 0  0.139 0.06159999999986434 0  0.139 0.06439999999985492 0  0.139 0.06719999999984551 0  0.139 0.0699999999998388 0  0.139 0.07279999999983211 0  0.139 0.0755999999998227 0  0.139 0.07839999999981329 0  0.139 0.08119999999980386 0  0.139 0.08399999999979445 0  0.139 0.08679999999978688 0  0.139 0.08959999999978095 0  0.139 0.09239999999977164 0  0.139 0.09519999999976225 0  0.139 0.09799999999975285 0  0.139 0.1007999999997434 0  0.139 0.103599999999735 0  0.139 0.1063999999997291 0  0.139 0.1091999999997206 0  0.139 0.1119999999997113 0  0.139 0.1147999999997018 0  0.139 0.1175999999996924 0  0.139 0.1203999999996832 0  0.139 0.1231999999996772 0  0.139 0.1259999999996713 0  0.139 0.128799999999663 0  0.139 0.1315999999996544 0  0.139 0.1343999999996495 0  0.139 0.1371999999996363 0  0.139 0.1399999999996253 0  0.139 0.1427999999996313 0  0.139 0.1455999999996397 0  0.139 0.1483999999996442 0  0.139 0.1511999999996541 0  0.139 0.1539999999996585 0  0.139 0.1567999999996667 0  0.139 0.1595999999996781 0  0.139 0.1623999999996828 0  0.139 0.1651999999996901 0  0.139 0.1679999999996972 0  0.139 0.1707999999997021 0  0.139 0.1735999999997115 0  0.139 0.176399999999716 0  0.139 0.1791999999997255 0  0.139 0.1819999999997303 0  0.139 0.1847999999997374 0  0.139 0.1875999999997447 0  0.139 0.1903999999997494 0  0.139 0.1931999999997607 0  0.139 0.1959999999997689 0  0.139 0.1987999999997733 0  0.139 0.2015999999997832 0  0.139 0.2043999999997876 0  0.139 0.207199999999796 0  0.139 0.2099999999998019 0  0.139 0.2127999999998079 0  0.139 0.2155999999998163 0  0.139 0.2183999999998207 0  0.139 0.2211999999998306 0  0.139 0.2239999999998351 0  0.139 0.2267999999998432 0  0.139 0.2295999999998546 0  0.139 0.2323999999998592 0  0.139 0.2351999999998665 0  0.139 0.2379999999998735 0  0.139 0.2407999999998784 0  0.139 0.2435999999998878 0  0.139 0.2463999999998923 0  0.139 0.2491999999999017 0  0.139 0.2519999999999207 0  0.139 0.2547999999999408 0  0.139 0.2575999999999439 0  0.139 0.2603999999999415 0  0.139 0.2631999999999425 0  0.139 0.2659999999999604 0  0.139 0.2687999999999761 0  0.139 0.2715999999999749 0  0.139 0.2743999999999725 0  0.139 0.2771999999999778 0  0.111 0.2772000000000133 0  0.111 0.2744000000000156 0  0.111 0.271600000000018 0  0.111 0.2688000000000217 0  0.111 0.266000000000038 0  0.111 0.2632000000000468 0  0.111 0.2604000000000492 0  0.111 0.2576000000000516 0  0.111 0.254800000000054 0  0.111 0.2520000000000564 0  0.111 0.2492000000000588 0  0.111 0.2464000000000611 0  0.111 0.2436000000000635 0  0.111 0.2408000000000709 0  0.111 0.2380000000000802 0  0.111 0.2352000000000921 0  0.111 0.2324000000001043 0  0.111 0.2296000000001082 0  0.111 0.2268000000001192 0  0.111 0.2240000000001323 0  0.111 0.2212000000001416 0  0.111 0.21840000000015 0  0.111 0.2156000000001524 0  0.111 0.2128000000001587 0  0.111 0.210000000000168 0  0.111 0.2072000000001774 0  0.111 0.2044000000001836 0  0.111 0.201600000000186 0  0.111 0.1988000000001951 0  0.111 0.1960000000002114 0  0.111 0.1932000000002239 0  0.111 0.1904000000002281 0  0.111 0.1876000000002304 0  0.111 0.1848000000002357 0  0.111 0.1820000000002493 0  0.111 0.1792000000002651 0  0.111 0.1764000000002725 0  0.111 0.1736000000002749 0  0.111 0.1708000000002822 0  0.111 0.168000000000298 0  0.111 0.1652000000003117 0  0.111 0.1624000000003169 0  0.111 0.1596000000003193 0  0.111 0.1568000000003234 0  0.111 0.1540000000003327 0  0.111 0.151200000000342 0  0.111 0.1484000000003504 0  0.111 0.1456000000003552 0  0.111 0.1428000000003684 0  0.111 0.1400000000003793 0  0.111 0.1372000000003732 0  0.111 0.1344000000003647 0  0.111 0.1316000000003602 0  0.111 0.1288000000003502 0  0.111 0.1260000000003456 0  0.111 0.1232000000003373 0  0.111 0.1204000000003259 0  0.111 0.1176000000003211 0  0.111 0.1148000000003137 0  0.111 0.1120000000003065 0  0.111 0.1092000000003015 0  0.111 0.106400000000292 0  0.111 0.1036000000002874 0  0.111 0.1008000000002779 0  0.111 0.09800000000027287 0  0.111 0.09520000000026577 0  0.111 0.09240000000025839 0  0.111 0.08960000000025362 0  0.111 0.08680000000024216 0  0.111 0.08400000000023394 0  0.111 0.08120000000022939 0  0.111 0.07840000000021943 0  0.111 0.07560000000021488 0  0.111 0.07280000000020645 0  0.111 0.0700000000002004 0  0.111 0.06720000000019433 0  0.111 0.06440000000018589 0  0.111 0.06160000000018134 0  0.111 0.05880000000017141 0  0.111 0.05600000000016683 0  0.111 0.05320000000015862 0  0.111 0.05040000000014716 0  0.111 0.04760000000014239 0  0.111 0.04480000000013501 0  0.111 0.04200000000012791 0  0.111 0.03920000000012291 0  0.111 0.03640000000011337 0  0.111 0.03360000000010885 0  0.111 0.03080000000009933 0  0.111 0.02800000000008024 0  0.111 0.02520000000006006 0  0.111 0.02240000000005682 0  0.111 0.01960000000005918 0  0.111 0.0168000000000581 0  0.111 0.01400000000004015 0  0.111 0.0112000000000243 0  0.111 0.008400000000025387 0  0.111 0.005600000000027749 0  0.111 0.00280000000002234 0  -0.111 0.002799999999994866 0  -0.111 0.005599999999989789 0  -0.111 0.008399999999984429 0  -0.111 0.01119999999997854 0  -0.111 0.0139999999999726 0  -0.111 0.01679999999996711 0  -0.111 0.01959999999996269 0  -0.111 0.02239999999995932 0  -0.111 0.02519999999995598 0  -0.111 0.02799999999995264 0  -0.111 0.03079999999994935 0  -0.111 0.03359999999994638 0  -0.111 0.03639999999994045 0  -0.111 0.03919999999993277 0  -0.111 0.04199999999992482 0  -0.111 0.04479999999991541 0  -0.111 0.04759999999990703 0  -0.111 0.05039999999989928 0  -0.111 0.05319999999988988 0  -0.111 0.05599999999988128 0  -0.111 0.05879999999987359 0  -0.111 0.06159999999986434 0  -0.111 0.06439999999985492 0  -0.111 0.06719999999984551 0  -0.111 0.0699999999998388 0  -0.111 0.07279999999983211 0  -0.111 0.0755999999998227 0  -0.111 0.07839999999981329 0  -0.111 0.08119999999980386 0  -0.111 0.08399999999979445 0  -0.111 0.08679999999978688 0  -0.111 0.08959999999978095 0  -0.111 0.09239999999977164 0  -0.111 0.09519999999976225 0  -0.111 0.09799999999975285 0  -0.111 0.1007999999997434 0  -0.111 0.103599999999735 0  -0.111 0.1063999999997291 0  -0.111 0.1091999999997
[...]
<PointData  Scalars="f_90"> 
<DataArray  type="Float64"  Name="f_90"  format="ascii">1.2633168539746789e-01  1.2493610009068228e-01  1.2638180394005397e-01  1.2498273839452381e-01  1.2556562863443016e-01  1.2547250131909748e-01  0.0000000000000000e+00  0.0000000000000000e+00  -1.6043918238400154e-01  1.1033234955810656e+00  1.8079542758947002e-03  4.5138955820507448e-02  7.1807319801298841e-02  8.5802026740707318e-02  9.5835909624616106e-02  1.0444358602987475e-01  1.1002274235306593e-01  1.1470120916233717e-01  1.1767269921967945e-01  1.1996701390389505e-01  1.2119295966159557e-01  1.2234215478012765e-01  1.2328223523305011e-01  1.2360642934717679e-01  1.2402838320041955e-01  1.2434664673312555e-01  1.2451501472969789e-01  1.2465488605264065e-01  1.2474552255756632e-01  1.2480863750730586e-01  1.2485556482368421e-01  1.2488895568479048e-01  1.2490961259614715e-01  1.2492544120101991e-01  1.2493966628035702e-01  1.2494829058317565e-01  1.2495225353102224e-01  1.2495653143959869e-01  1.2495879540582720e-01  1.2496202092742265e-01  1.2496304890233835e-01  1.2496443711772021e-01  1.2496407175289993e-01  1.2496341250540748e-01  1.2496416433200114e-01  1.2496598167111600e-01  1.2496642285958191e-01  1.2496650372666014e-01  1.2496622604347826e-01  1.2496640742141417e-01  1.2496686052981203e-01  1.2496641301487094e-01  1.2496490830768411e-01  1.2496489655532544e-01  1.2496566919142085e-01  1.2496562370910930e-01  1.2496555682597270e-01  1.2496583633427508e-01  1.2496582914733258e-01  1.2496603847293036e-01  1.2496614013250995e-01  1.2496600312907340e-01  1.2496602157305378e-01  1.2496585019226439e-01  1.2496551114101696e-01  1.2496565699832485e-01  1.2496581690069827e-01  1.2496556956439252e-01  1.2496514417746725e-01  1.2496458408754187e-01  1.2496529088012845e-01  1.2496768908662292e-01  1.2497169993401995e-01  1.2497160261599491e-01  1.2496420342409692e-01  1.2495940861360404e-01  1.2496451751736080e-01  1.2496694491008821e-01  1.2496379686845438e-01  1.2496389840600616e-01  1.2497090507275352e-01  1.2497499199985020e-01  1.2497260127253050e-01  1.2496456803640951e-01  1.2495011874902794e-01  1.2494328612146507e-01  1.2495547344281382e-01  1.2497138927339248e-01  1.2496930797071117e-01  1.2496812958349741e-01  1.2496853912772823e-01  1.2496606326245419e-01  1.2496618761418379e-01  1.2496595296501846e-01  1.2496506850543547e-01  1.2496471252266909e-01  1.2496481468689316e-01  1.2496466164017581e-01  1.2496418433489778e-01  1.2496388350777451e-01  1.2496398243645690e-01  1.2496349047773435e-01  1.2496278426411425e-01  1.2496161640265391e-01  1.2496024227157307e-01  1.2495836108789089e-01  1.2495585606284193e-01  1.2495162988736981e-01  1.2494532812798878e-01  1.2632997109631214e-01  1.2633527916738133e-01  1.2634044683571205e-01  1.2633993251547174e-01  1.2634207148293700e-01  1.2634195409558646e-01  1.2634263044199456e-01  1.2634304659286036e-01  1.2634405861347539e-01  1.2634497569611955e-01  1.2634550287258933e-01  1.2634759293125411e-01  1.2634939729990069e-01  1.2634979768681392e-01  1.2635255181530847e-01  1.2634057126910433e-01  1.2634157645690894e-01  1.2634848850524355e-01  1.2634863624231213e-01  1.2634496705958079e-01  1.2634644746700502e-01  1.2634516100318602e-01  1.2634431514301589e-01  1.2634743230432988e-01  1.2634624964424082e-01  1.2634675088309530e-01  1.2634866281242257e-01  1.2634858297082294e-01  1.2634809809564038e-01  1.2634405678276325e-01  1.2634884694859996e-01  1.2635587441067114e-01  1.2634484796302270e-01  1.2634801072308335e-01  1.2634694670162067e-01  1.2633776262716745e-01  1.2635507372428048e-01  1.2634759982155860e-01  1.2634789921927025e-01  1.2634412218709098e-01  1.2634362947005709e-01  1.2634372708933073e-01  1.2634382723673748e-01  1.2634764806661086e-01  1.2634780543256902e-01  1.2635216717233869e-01  1.2635493798205027e-01  1.2634956872813552e-01  1.2634461070198319e-01  1.2634408805844705e-01  1.2634444007960072e-01  1.2634526014971542e-01  1.2634677334887420e-01  1.2634737305700386e-01  1.2634756416350909e-01  1.2634742660015211e-01  1.2634738429531941e-01  1.2634735993867388e-01  1.2634738043707860e-01  1.2634735015036833e-01  1.2634740928715227e-01  1.2634823894672367e-01  1.2634772702635150e-01  1.2634570789578317e-01  1.2634957006542197e-01  1.2635657645516932e-01  1.2634872852980986e-01  1.2635423515006930e-01  1.2635536959988317e-01  1.2634845335424058e-01  1.2636594674002014e-01  1.2636393961606257e-01  1.2636980501764380e-01  1.2637826479535247e-01  1.2638854345790024e-01  1.2640342845012004e-01  1.2642165564781563e-01  1.2644679203873457e-01  1.2648658435170954e-01  1.2653600490217656e-01  1.2659281566349373e-01  1.2667762858207082e-01  1.2678405002153750e-01  1.2693971656141903e-01  1.2713903438060198e-01  1.2741175859985851e-01  1.2776649835293863e-01  1.2817745189516946e-01  1.2871668439385270e-01  1.2935723840374694e-01  1.3010959328446714e-01  1.3093336790297580e-01  1.3170099228104748e-01  1.3212786465595178e-01  1.3178222604631509e-01  1.2962689055674795e-01  1.2426043776102026e-01  1.1493317827568865e-01  7.6381398876000789e-02  -4.9978860314039482e-02  2.2931632267273599e-02  6.9960573626102654e-02  8.5332659090548435e-02  1.0159710976896588e-01  1.0993923855019749e-01  1.1511888638785540e-01  1.1857430593416551e-01  1.2081652643695873e-01  1.2236936539524933e-01  1.2346217603842292e-01  1.2423072864154845e-01  1.2477347389840497e-01  1.2515311937458024e-01  1.2545357178150057e-01  1.2568335484191456e-01  1.2585653558361401e-01  1.2598296036248838e-01  1.2607501425729750e-01  1.2614558893414177e-01  1.2619887577795594e-01  1.2623805612985262e-01  1.2626558293599860e-01  1.2628525972033569e-01  1.2630076026164067e-01  1.2631442749194793e-01  1.2632433361941178e-01  1.2633038402737259e-01  1.2633409045210572e-01  1.2633777160584941e-01  1.2634063393389292e-01  1.2634230298596255e-01  1.2634459705659520e-01  1.2634131301172472e-01  1.2634136608357949e-01  1.2635141472919154e-01  1.2635370462857001e-01  1.2634473350427206e-01  1.2634101753689062e-01  1.2634307501439843e-01  1.2634423640677592e-01  1.2634856808617015e-01  1.2634866064140332e-01  1.2634608680728909e-01  1.2634670762873648e-01  1.2634752005109756e-01  1.2634782266895050e-01  1.2634748481486885e-01  1.2634733474216758e-01  1.2634758833386203e-01  1.2634748079255287e-01  1.2634734279625298e-01  1.2634718359257949e-01  1.2634671604043135e-01  1.2634688592598817e-01  1.2634685162130713e-01  1.2634646996236523e-01  1.2634668830709495e-01  1.2634721116792275e-01  1.2634708527906055e-01  1.2634672805528027e-01  1.2634675345982804e-01  1.2634603773246766e-01  1.2634531414409386e-01  1.2634399822694284e-01  1.2634959302096505e-01  1.2634970881015464e-01  1.2635696244814670e-01  1.2636858024893466e-01  1.2634401896289049e-01  1.2631941927901036e-01  1.2632899400851499e-01  1.2634972317473492e-01  1.2635121208372849e-01  1.2634807778946286e-01  1.2634820336794741e-01  1.2634769391549583e-01  1.2634769696811846e-01  1.2634680083671565e-01  1.2634670363901773e-01  1.2634734762508684e-01  1.2634754143782784e-01  1.2634744181290022e-01  1.2634722801805226e-01  1.2634753905933069e-01  1.2634766075607823e-01  1.2634762221442047e-01  1.2634729335504752e-01  1.2634728231892733e-01  1.2634753675100879e-01  1.2634744663452846e-01  1.2634817921803376e-01  1.2634817463887452e-01  1.2635120573677644e-01  1.2635728459870524e-01  1.2636095801766689e-01  1.2636183273327778e-01  1.2636446257369027e-01  1.2637056424177151e-01  1.2498294691036603e-01  1.2497054706592896e-01  1.2497783962652663e-01  1.2497617284282050e-01  1.2497447084900967e-01  1.2498015049858734e-01  1.2497284756110637e-01  1.2495965563750690e-01  1.2494741371115843e-01  1.2496166264598432e-01  1.2497285921282350e-01  1.2496794897666776e-01  1.2496740067708442e-01  1.2496254282802494e-01  1.2496035014802967e-01  1.2496771473519452e-01  1.2496243759644196e-01  1.2496563921410142e-01  1.2496506664885187e-01  1.2496354712591783e-01  1.2496658842552900e-01  1.2496534664324131e-01  1.2496539589062745e-01  1.2496548553519397e-01  1.2496592145765111e-01  1.2496594142327543e-01  1.2496568954618915e-01  1.2496604868964717e-01  1.2496536801738352e-01  1.2496555810277364e-01  1.2496532226240895e-01  1.2496553921367887e-01  1.2496569771512879e-01  1.2496516595762283e-01  1.2496592183661553e-01  1.2496566222527106e-01  1.2496551929658571e-01  1.2496614291976572e-01  1.2496587236638872e-01  1.2496581406303439e-01  1.2496594738446797e-01  1.2496572961000267e-01  1.2496566854292818e-01  1.2496612310407620e-01  1.2496580652607442e-01  1.2496574303162901e-01  1.2496595455041473e-01  1.2496571271527489e-01  1.2496577774668982e-01  1.2496582433066576e-01  1.2496576515599336e-01  1.2496559007480283e-01  1.2496593291131405e-01  1.2496546257473777e-01  1.2496549910689198e-01  1.2496616172076261e-01  1.2496459953095063e-01  1.2496565664593287e-01  1.2496730097484890e-01  1.2496612137766339e-01  1.2496260865005755e-01  1.2496533312323678e-01  1.2496693212340919e-01  1.2496743040874306e-01  1.2496855372251410e-01  1.2496450739114977e-01  1.2496800779228606e-01  1.2496860585153072e-01  1.2496930969914408e-01  1.2497076667159808e-01  1.2497285343533836e-01  1.2497600372525394e-01  1.2498029660258740e-01  1.2498639219096908e-01  1.2499526318170991e-01  1.2500783426107653e-01  1.2502590360520999e-01  1.2505114281985261e-01  1.2508699388472116e-01  1.2513811595579444e-01  1.2521021705862365e-01  1.2531016665646377e-01  1.2545505129857110e-01  1.2565606948505265e-01  1.2595067364955287e-01  1.2634920218747051e-01  1.2690995224381713e-01  1.2770420284135070e-01  1.2882384765336871e-01  1.3039795016205374e-01  1.3259932865422719e-01  1.3565055024265094e-01  1.3973453799423136e-01  1.4546364888959512e-01  1.5230792897432902e-01  1.5837179864903730e-01  1.8101459354658364e-01  1.8231570666608554e-01  3.9406223590969269e-01  1.9372457008513283e-01  1.3163561324386053e-01  1.1208254794679631e-01  9.1670628506201002e-02  7.8412874520864956e-02  7.0143462290598591e-02  4.8753401350659781e-02  5.4396888956116579e-02  5.7112425930196546e-02  0.0000000000000000e+00  0.0000000000000000e+00  0.0000000000000000e+00  0.0000000000000000e+00  0.0000000000000000e+00  0.0000000000000000e+00  0.0000000000000000e+00  0.0000000000000000e+00  0.0000000000000000e+00  1.2492339732423244e-01  1.2492130729190071e-01  1.2490639371337993e-01  1.2491446785159752e-01  1.2491859024162179e-01  1.2489072067089686e-01  1.2491235004159369e-01  1.2491217604205333e-01  1.2492432804848824e-01  1.2492656553921880e-01  1.2493756911315484e-01  1.2489475072046492e-01  1.2497335900280780e-01  1.2490077227806669e-01  1.2491653220358601e-01  1.2502202379105157e-01  1.2496286772213579e-01  1.2497018469605353e-01  1.2495865358468697e-01  1.2499970859815043e-01  1.2498436286918892e-01  1.2498956271284259e-01  1.2495855437289843e-01  1.2512010652186514e-01  1.2490047897366904e-01  1.2508417758903512e-01  1.2505633116530115e-01  1.2504806539962945e-01  1.2507130101427796e-01  1.2504562853812273e-01  1.2522051834490244e-01  1.2496903170416342e-01  1.2516022333938587e-01  1.2508669902385880e-01  1.2515848697134335e-01  1.2515100069567114e-01  1.2513034949830362e-01  1.2518115975511690e-01  1.2521261031858574e-01  1.2512432461235223e-01  1.2525724401317107e-01  1.2527238873432317e-01  1.2510955894805864e-01  1.2531723934811417e-01  1.2528229413941255e-01  1.2521967709228668e-01  1.2521588421819987e-01  1.2526080041449791e-01  1.2526088492680260e-01  1.2529695619327169e-01  1.2529439905507936e-01  1.2531235838892082e-01  1.2533441356960170e-01  1.2534365691929211e-01  1.2534203001015676e-01  1.2537350118327620e-01  1.2540657188198956e-01  1.2535238575421306e-01  1.2539745281882733e-01  1.2538183786560511e-01  1.2537105895185616e-01  1.2547581698657476e-01  1.2542890213380298e-01  1.2546532542180738e-01  1.2547357487475116e-01  1.2545082805495439e-01  1.2548675085983504e-01  1.2547252088634656e-01  1.2545391291528477e-01  1.2556491335499392e-01  1.2548282051695459e-01  1.2550045477679772e-01  1.2557007047499488e-01  1.2553708322936280e-01  1.2554340572866812e-01  1.2554471467925798e-01  1.2555625548787544e-01  1.2561957629859477e-01  1.2557485907781479e-01  1.2560736044333765e-01  1.2559708946190776e-01  1.2561998019945084e-01  1.2565103837666411e-01  1.2562058408060270e-01  1.2563186720221278e-01  1.2566017637842034e-01  1.2565811460818260e-01  1.2566307639989438e-01  1.2568649953068109e-01  1.2569335012615557e-01  1.2569920079927288e-01  1.2570822335470447e-01  1.2572231706598044e-01  1.2573448690676531e-01  1.2573278696728887e-01  1.2574376141823365e-01  1.2574813555549066e-01  1.2576083059003346e-01  1.2580010388387283e-01  1.2579974096412064e-01  1.2582514404288941e-01  1.2578920618187778e-01  1.2585108104361550e-01  1.2580028113810907e-01  1.2583380403024075e-01  1.2589026738650783e-01  1.2587458975472987e-01  1.2587241941475380e-01  1.2591995307992901e-01  1.2588749711874578e-01  1.2593365373077431e-01  1.2593459444090926e-01  1.2595070673722852e-01  1.2595610940978919e-01  1.2597991093116193e-01  1.2598622018493907e-01  1.2600152458488240e-01  1.2600300435784811e-01  1.2601914868082872e-01  1.2606082403539667e-01  1.2603561245818221e-01  1.2610704329281580e-01  1.2605066094343054e-01  1.2610478071355702e-01  1.2610704921617735e-01  1.2610410448338893e-01  1.2612781411151477e-01  1.2613582653471497e-01  1.2616598424554937e-01  1.2611816761772252e-01  1.2620699721665771e-01  1.2614258793617089e-01  1.2619870597120036e-01  1.2619193139867690e-01  1.2620585084694494e-01  1.2623208139608111e-01  1.2624920286920333e-01  1.2620691971754910e-01  1.2627428392398291e-01  1.2622877546059044e-01  1.2626955242354029e-01  1.2626147479877711e-01  1.2627677576872853e-01  1.2626652555470577e-01  1.2628976182785548e-01  1.2628676328244817e-01  1.2630842644277901e-01  1.2629476042752069e-01  1.2630694749938218e-01  1.2629732331436525e-01  1.2630576124044332e-01  1.2631616179636582e-01  1.2632754960477588e-01  1.2632289485748496e-01  1.2638738938129754e-01  1.2639865151348931e-01  1.2643942389796217e-01  1.2640110607239582e-01  1.2637124166164798e-01  1.2642815693581008e-01  1.2637723937632928e-01  1.2638968454837918e-01  1.2636242416100008e-01  1.2641070277120900e-01  1.2627057139035860e-01  1.2639336554509523e-01  1.2629604386879170e-01  1.2638146763604960e-01  1.2626945467658979e-01  1.2630360525913911e-01  1.2628290015899091e-01  1.2625428531864527e-01  1.2623792065673065e-01  1.2621459494963391e-01  1.2619711100489284e-01  1.2617839943511364e-01  1.2615670893681391e-01  1.2610537238406785e-01  1.2612184799264461e-01  1.2610969277702189e-01  1.2616936625358194e-01  1.2601383972435862e-01  1.2604024018444607e-01  1.2600792438982791e-01  1.2599564830574625e-01  1.2597434928804571e-01  1.2595519448465384e-01  1.2594763131274342e-01  1.2589390317734103e-01  1.2588812452431741e-01  1.2585630088747654e-01  1.2584342583501784e-01  1.2582482274571510e-01  1.2580217444053082e-01  1.2579250757606761e-01  1.2576591421437253e-01  1.2575189950722263e-01  1.2573008232973115e-01  1.2572115261330913e-01  1.2569476113335304e-01  1.2567988673131597e-01  1.2566725479100579e-01  1.2563080356946565e-01  1.2562809229117672e-01  1.2561041973222309e-01  1.2564917872250933e-01  1.2555328502407681e-01  1.2559239349036072e-01  1.2555695195465821e-01  1.2554077616357004e-01  1.2554151459991084e-01  1.2551310732536955e-01  1.2553120609429894e-01  1.2545309719639819e-01  1.2549502277262090e-01  1.2548399903276694e-01  1.2548003481641370e-01  1.2542823729635838e-01  1.2543673944138872e-01  1.2542725749811515e-01  1.2541261045466420e-01  1.2540229868197234e-01  1.2538609003143694e-01  1.2538478570436651e-01  1.2538420634817468e-01  1.2537457036929708e-01  1.2536399758092434e-01  1.2534518273430739e-01  1.2534172311501890e-01  1.2534374360359499e-01  1.2532847088859331e-01  1.2533324853324235e-01  1.2529700001564761e-01  1.2528866609623304e-01  1.2527733273549227e-01  1.2527056940592055e-01  1.2526191481163421e-01  1.2525413391773538e-01  1.2524535480275711e-01  1.2523566728649235e-01  1.2523781046079627e-01  1.2520683606968105e-01  1.2523084647341612e-01  1.2519057815816093e-01  1.2519436902699460e-01  1.2518438736010673e-01  1.2517610228256446e-01  1.2517769983489641e-01  1.2513238747122288e-01  1.2520031555031116e-01  1.2509914971651429e-01  1.2515956366342532e-01  1.2510362200744254e-01  1.2513325905771139e-01  1.2507009965437371e-01  1.2515156202651168e-01  1.2506024058414605e-01  1.2511983086684050e-01  1.2505447065689484e-01  1.2510756359633141e-01  1.2502621735527436e-01  1.2508020224135494e-01  1.2504829723691122e-01  1.2505264367634175e-01  1.2503567156626860e-01  1.2505044646618088e-01  1.2502738509082387e-01  1.2502658265749650e-01  1.2502401133328953e-01  1.2501898833181724e-01  1.2501551486113641e-01  1.2500787844010286e-01  1.2501272597062221e-01  1.2500177406380217e-01  1.2500982390730037e-01  1.2499837076375551e-01  1.2499259258674469e-01  1.2498976981516657e-01  1.2516701960778850e-01  1.2594878499441914e-01  1.2500096960305174e-01  1.2559444137101808e-01  1.2502732676471978e-01  1.2565859303361129e-01  1.2537393860243862e-01  1.2632281287938094e-01  1.2540725197680563e-01  1.2633692901212534e-01  1.2519299269611048e-01  1.2601549036446177e-01  1.2511325398616524e-01  1.2587249517399118e-01  1.2498834161488155e-01  1.2555488429025249e-01  1.2533255372917404e-01  1.2624098093893618e-01  1.2505172129819001e-01  1.2571179418557327e-01  1.2545135310648398e-01  1.2635933433567709e-01  1.2522055666130180e-01  1.2611443710352901e-01  1.2506635654662929e-01  1.2579491217772482e-01  1.2549294391794941e-01  1.2497811918340482e-01  1.2528124087646178e-01  1.2618119924188378e-01  1.2636220862056033e-01  1.2495959525827435e-01  1.2633850564474125e-01  1.2497108852829997e-01  1.2634106499062051e-01  1.2404319356002577e-01  1.2574394105475145e-01  1.2465369663949365e-01  1.2609372690744425e-01  1.2496532493755548e-01  1.2634680173056329e-01  1.2496625684693148e-01  1.2634688495687094e-01  1.2496404761220962e-01  1.2634676594327227e-01  1.2496544389118996e-01  1.2634495554450093e-01  1.0554495775837250e-01  1.1564231440228978e-01  1.2496451619408350e-01  1.2634406235938872e-01  1.2496500954780847e-01  1.2634655556496691e-01  1.2496430969281792e-01  1.2634773281819917e-01  1.2485605544160351e-01  1.2624170416122185e-01  1.2496593390390116e-01  1.2634728906800813e-01  1.2630434420852535e-01  1.2492775577758909e-01  1.2634952015696285e-01  1.2496629461597118e-01  1.2496612849862312e-01  1.2634790211854532e-01  1.2253766944359787e-01  1.2493921760085751e-01  1.2634719933937222e-01  1.2496610300294428e-01  1.2634672558217194e-01  1.2496596162118510e-01  1.2273697223540349e-01  1.1805207456539224e-01  1.2496613021061735e-01  1.2635059816459299e-01  1.2634684627842777e-01  1.2496624168338946e-01  1.2634750249678164e-01  1.2496634212622346e-01  1.2496588663047534e-01  1.2634772830116098e-01  1.2496634273581679e-01  1.2634774494499681e-01  1.2496372418061232e-01  1.2634369871493695e-01  1.2496618723541499e-01  1.2634588091152779e-01  1.2528008829234777e-01  1.2612597532817399e-01  1.2505825271741480e-01  1.2577544661930262e-01  1.2556609102636307e-01  1.2635148774773247e-01  1.2496761285284139e-01  1.2498560267297749e-01  1.2637078533113277e-01  1.2495624816970609e-01  1.2496470666830825e-01  1.2634835595914942e-01  1.2496244145969378e-01  1.2635172102026160e-01  1.2634795343774760e-01  1.2496625303022299e-01  1.2634743330061612e-01  1.2496648777639761e-01  1.2552266253331387e-01  1.2632692621758715e-01  1.2495791821595299e-01  1.2532365797289896e-01  1.2618203016268781e-01  1.2506407921404258e-01  1.2584855363786152e-01  1.2521049967545644e-01  1.2602773715545820e-01  1.2547582860941686e-01  1.2630646900313680e-01  1.2500253434141631e-01  1.2571105978267419e-01  1.2539381403111399e-01  1.2623904006979098e-01  1.2494470028608079e-01  1.2562075265088823e-01  1.2514840906750699e-01  1.2592081292337295e-01  1.2516594998807973e-01  1.2597485798847327e-01  1.2542065115379383e-01  1.262658860216836