<?xml version="1.0"?>
<VTKFile type="UnstructuredGrid"  version="0.1"  >
<UnstructuredGrid>
<Piece  NumberOfPoints="16803" NumberOfCells="32202">
<Points>
<DataArray  type="Float64"  NumberOfComponents="3"  format="ascii">0.139 0.28 0  0.1376000000000014 0.28 0  0.1379751288694068 0.2789751288694001 0  0.1368802006666296 0.2788061341781035 0  0.139 0.2785999999999874 0  0.1362000000000038 0.28 0  0.137835508776024 0.277888907638603 0  0.1347999999999976 0.28 0  0.1334 0.28 0  0.1341032791232803 0.278782724032217 0  0.1355 0.2787984837430916 0  0.1363900962351843 0.2773903291519245 0  0.1327185050153635 0.2787544409349105 0  0.1320000000000013 0.28 0  0.139 0.2771999999999778 0  0.1377875644346995 0.2764999999999753 0  0.1347945367824132 0.2775533789145986 0  0.133419090878487 0.2775585836871308 0  0.1312693531140275 0.2787104521694505 0  0.130600000000006 0.28 0  0.1292000000000095 0.28 0  0.1297586676337225 0.2786421830080903 0  0.1278000000000206 0.28 0  0.1283593144840699 0.2786532569701938 0  0.136614033566989 0.2760544059458631 0  0.1318958317105534 0.2774700635056664 0  0.1269658505432111 0.2786285017868364 0  0.1264000000000252 0.28 0  0.1250000000000298 0.28 0  0.1256062399909937 0.2786755522927038 0  0.1236000000000317 0.28 0  0.1243076289956493 0.2787836559309291 0  0.139 0.2757999999999721 0  0.1353271367319419 0.2761885546297994 0  0.1375657178373808 0.2750883862138095 0  0.1338032576001968 0.2762126197766149 0  0.1324032856932832 0.2762037446466284 0  0.1304576449667039 0.2773918563901187 0  0.1289473839810223 0.2773957890707205 0  0.1275198865852331 0.2773708405549852 0  0.1229757800312403 0.2787616087260045 0  0.1360353580576158 0.275042076062199 0  0.122200000000033 0.28 0  0.131107110595455 0.2762013032057599 0  0.1261958266120433 0.277354015141864 0  0.1248978863140152 0.2773680643962775 0  0.1237700233452104 0.2776820644400238 0  0.1366853981651066 0.2740961521083429 0  0.1214741567701957 0.2784665939096424 0  0.139 0.2743999999999725 0  0.134511212746251 0.2750048913247792 0  0.1331112479511105 0.2749949344481095 0  0.1317113090070712 0.2749810454508302 0  0.1296398150619666 0.2761787575614124 0  0.1282076871225175 0.2761786314423025 0  0.1268034072305192 0.2761668500867801 0  0.1225343863047961 0.277474767385096 0  0.1353835188310563 0.2737091025661112 0  0.1378104752201687 0.2736603173555077 0  0.1208000000000355 0.28 0  0.1194000000000303 0.28 0  0.1199491177555358 0.278623857164783 0  0.1180000000000284 0.28 0  0.1185538216899963 0.2786221828255504 0  0.1303113018673203 0.2749775294649049 0  0.1254174129766325 0.2761570862077077 0  0.124008659604051 0.2762798768746078 0  0.1232469306229069 0.2768792630209675 0  0.1366319208793114 0.2729808783440869 0  0.1215420853561229 0.277100899867262 0  0.1171654976846604 0.2786433248119011 0  0.1166000000000222 0.28 0  0.139 0.2729999999999737 0  0.1338191981225494 0.2737879626675976 0  0.1324192272781798 0.2737789259181767 0  0.1310192575325716 0.2737697220398458 0  0.1289181288078564 0.2749676304559448 0  0.1275113629670327 0.2749590318223485 0  0.1261113951576162 0.2749495334366742 0  0.1226038037230583 0.2760927350283153 0  0.1356758210989495 0.2724110192664995 0  0.1377958883199218 0.2722937615480416 0  0.1205373007930745 0.2774113073205699 0  0.1191332188571156 0.2773518402693043 0  0.1177181017217543 0.2773067369337242 0  0.1157689746187712 0.2786188385043147 0  0.1152000000000127 0.28 0  0.1138000000000146 0.28 0  0.1144712639992811 0.2786566951772013 0  0.1124000000000089 0.28 0  0.1131000000000115 0.2787875644347002 0  0.1345157847689696 0.2725019731863946 0  0.129620420567985 0.2737604023064092 0  0.1247114344637371 0.2749389527316531 0  0.1366294122491033 0.2716833204848027 0  0.1211447834239299 0.2760916518945782 0  0.1163520880773901 0.2773121906078176 0  0.1120248711306053 0.2789751288693993 0  0.111 0.28 0  0.139 0.2715999999999749 0  0.1331254294006967 0.2725700626928381 0  0.1317272131978245 0.2725619146147852 0  0.1303272434522159 0.2725527107364545 0  0.1282206399157449 0.2737511340141652 0  0.1268193493142482 0.2737419554827284 0  0.125419382134062 0.273732361387021 0  0.1233115126876951 0.2749224523707534 0  0.1353137810477952 0.2711732753089516 0  0.1377925406418623 0.270902251932839 0  0.1198069931704793 0.2761303267570468 0  0.121911534435171 0.2749145424499227 0  0.1184035882372035 0.276111705863322 0  0.1170036184915928 0.2761025019849917 0  0.1149873522962745 0.2773418794331893 0  0.1134813197624989 0.2772897820141455 0  0.1121283615890268 0.2778907281668497 0  0.111 0.2786000000000082 0  0.1338246162535145 0.2713571433952943 0  0.1289272737066049 0.272543506858122 0  0.1240194187292603 0.2737221930311094 0  0.1366141776475235 0.2703354632873226 0  0.1205115221549765 0.2749118083590927 0  0.1156036487459818 0.2760932981066605 0  0.139 0.2701999999999762 0  0.1324331228800924 0.2713529032775509 0  0.1310351991174685 0.2713449033113936 0  0.1296352293718603 0.2713356994330625 0  0.1275273041307425 0.2725342771594386 0  0.1261273354485291 0.2725249115317989 0  0.1247273667212208 0.272515552763702 0  0.122619439058916 0.2737144987698618 0  0.1344799601429151 0.2701184976064311 0  0.1355642592334002 0.2699426713019586 0  0.1377953653589709 0.2695135115971535 0  0.1191115455565758 0.2749036468354139 0  0.1212194693133086 0.2737052948915315 0  0.1177115741568445 0.2748946945599302 0  0.1163116044112354 0.2748854906815986 0  0.114277885290002 0.2760521821728208 0  0.1121639786410451 0.2764918936828318 0  0.111 0.2772000000000133 0  0.1331431245283299 0.2701462997646623 0  0.1282352596262493 0.2713264955547303 0  0.1233273967535322 0.2725063826653829 0  0.1365960465053339 0.2688603148142416 0  0.1198195009855225 0.2736958753536176 0  0.1149212203303461 0.2748717106257458 0  0.1131400709757257 0.2759289195272315 0  0.139 0.2687999999999761 0  0.1317431547827206 0.2701370958863323 0  0.1303431850371121 0.2701278920080015 0  0.1289432152915032 0.2701186881296704 0  0.1268352901769939 0.2713172465986371 0  0.125435320510269 0.2713080307215013 0  0.1240353508141058 0.2712988193226344 0  0.1219274249785609 0.2724974874664707 0  0.133851080193582 0.2689384923396007 0  0.1351725459080322 0.2688918840897411 0  0.1378745507271478 0.268115763530016 0  0.118419529822096 0.2736868871348692 0  0.1205274552329544 0.2724882835881403 0  0.1170195600764874 0.273677683256538 0  0.1156195903308784 0.2736684793782049 0  0.1135661842872055 0.2748450542432139 0  0.1122109868978769 0.2749656855231453 0  0.111 0.2758000000000144 0  0.1324511104479728 0.26892928846127 0  0.1275432455458908 0.2701094842513415 0  0.1226353809820415 0.2712896285948415 0  0.1358597056615643 0.2675695356759041 0  0.1369756813992393 0.2673999999999714 0  0.1191274854873474 0.2724790797098091 0  0.1142196205852687 0.2736592754998704 0  0.139 0.2673999999999704 0  0.1310511407023634 0.2689200845829407 0  0.1296511709567546 0.2689108807046098 0  0.1282512012111433 0.2689016768262809 0  0.126143275800283 0.2701002803730124 0  0.1247433060546752 0.2700910764946835 0  0.1233433363090667 0.2700818726163526 0  0.1212354108982066 0.2712804761630797 0  0.1331524865852965 0.2677152540876157 0  0.1345459518536411 0.2677213828931734 0  0.137854323189656 0.2666999999999737 0  0.11772751574174 0.2724698758314775 0  0.1198354411526006 0.2712712722847481 0  0.1163291085376746 0.2724615681585388 0  0.1149369514997826 0.2724568453071765 0  0.1129213895580168 0.2736547944124372 0  0.111 0.2744000000000156 0  0.1317590963676151 0.2677122771578799 0  0.1268512314655346 0.2688924729479518 0  0.121943366563459 0.2700726687380207 0  0.1351867201478051 0.2664017430610484 0  0.1365713000177196 0.2661843613173203 0  0.1184354714069933 0.2712620684064169 0  0.1136007974163052 0.2724586263187647 0  0.1118114508424207 0.2736928676322121 0  0.139 0.2659999999999604 0  0.1303591266220042 0.2677030732795503 0  0.1289591568763948 0.2676938694012204 0  0.1275591871307855 0.2676846655228922 0  0.1254512617199277 0.2688832690696227 0  0.1240512919743199 0.2688740651912924 0  0.1226513222287121 0.2688648613129616 0  0.1205433968178529 0.2700634648596883 0  0.1324670520328665 0.2665044697328177 0  0.1338406286161014 0.2664856139409527 0  0.1378060215627723 0.2653027500691715 0  0.1170355016613847 0.2712528645280852 0  0.1191434270722461 0.2700542609813564 0  0.1156355319157746 0.271243660649751 0  0.11429181366573 0.2712667201656087 0  0.1122351498248546 0.2723816639781962 0  0.111 0.2730000000000168 0  0.131067082287256 0.2664952658544868 0  0.1261592173851787 0.2676754616445617 0  0.1212513524831047 0.2688556574346293 0  0.1345099738509517 0.2652679446147115 0  0.1356660236380892 0.2652968930509728 0  0.1366191128829423 0.2646165004151954 0  0.1177434573266383 0.2700450571030252 0  0.1131658706894054 0.2714188453183769 0  0.139 0.2645999999999482 0  0.1296671125416459 0.2664860619761591 0  0.1282671427960368 0.2664768580978305 0  0.1268671730504298 0.2664676542195003 0  0.1247592476395716 0.2676662577662318 0  0.1233592778939642 0.267657053887902 0  0.1219593081483571 0.2676478500095707 0  0.1198513827374996 0.2688464535562959 0  0.1317750379525063 0.265287458429423 0  0.1331750076981166 0.2652966623077515 0  0.1377875644346711 0.2638999999999386 0  0.1163434875810293 0.2700358532246915 0  0.118451412991892 0.2688372496779643 0  0.1149507485439573 0.2700266372862266 0  0.1134585311306469 0.2700944500357421 0  0.1121821219270822 0.2708393817977439 0  0.111 0.271600000000018 0  0.1303750682068972 0.2652782545510933 0  0.1254672033048224 0.2664584503411708 0  0.1205593384027503 0.2676386461312383 0  0.1352917554095784 0.2639990024913635 0  0.133841802791678 0.2640965862169854 0  0.1365751288693476 0.2631999999999238 0  0.1170514432462841 0.2688280457996333 0  0.139 0.2631999999999425 0  0.1289750984612889 0.2652690506727657 0  0.1275751287156804 0.2652598467944389 0  0.1261751589700724 0.2652506429161102 0  0.1240672335592163 0.2664492464628413 0  0.1226672638136089 0.2664400425845109 0  0.1212672940680019 0.26643083
[...]
<PointData  Vectors="f_34"> 
<DataArray  type="Float64"  Name="f_34"  NumberOfComponents="3" format="ascii">0.0000000000000000e+00 0.0000000000000000e+00 0.0000000000000000e+00  8.7305925244551788e-02 4.6104965617625743e-01 0.0000000000000000e+00  5.9363455516186582e-02 4.1315147583195933e-01 0.0000000000000000e+00  1.0383037066024245e-01 4.1750634798610536e-01 0.0000000000000000e+00  0.0000000000000000e+00 0.0000000000000000e+00 0.0000000000000000e+00  1.3918108774112634e-01 4.4123277883117534e-01 0.0000000000000000e+00  5.0813105441285804e-02 3.6498732296470782e-01 0.0000000000000000e+00  1.8794035921874847e-01 4.1521896047810458e-01 0.0000000000000000e+00  2.3126623579719111e-01 3.7980183305198389e-01 0.0000000000000000e+00  2.0178714095600989e-01 3.7355808044982736e-01 0.0000000000000000e+00  1.5586163838598838e-01 4.0239360785410383e-01 0.0000000000000000e+00  1.0366134442423387e-01 3.5729058502191069e-01 0.0000000000000000e+00  2.4223693247157277e-01 3.3618053366806799e-01 0.0000000000000000e+00  2.6990845758562160e-01 3.3348920897481998e-01 0.0000000000000000e+00  0.0000000000000000e+00 0.0000000000000000e+00 0.0000000000000000e+00  4.1048083710044113e-02 3.0958243103019201e-01 0.0000000000000000e+00  1.6250382267059357e-01 3.4623692794281807e-01 0.0000000000000000e+00  2.0461558810802646e-01 3.1943720428012801e-01 0.0000000000000000e+00  2.7789332399633421e-01 2.8666711982091214e-01 0.0000000000000000e+00  3.0178186412656977e-01 2.7666960828256004e-01 0.0000000000000000e+00  3.2422232533110018e-01 2.0999731349720072e-01 0.0000000000000000e+00  3.0622643294521606e-01 2.2359911677093683e-01 0.0000000000000000e+00  3.3644019080120002e-01 1.3768050921478847e-01 0.0000000000000000e+00  3.2364003999396962e-01 1.5961855555380469e-01 0.0000000000000000e+00  7.8793823230714599e-02 3.0921197483676727e-01 0.0000000000000000e+00  2.4378894430460629e-01 2.7652766697015330e-01 0.0000000000000000e+00  3.3102551961633253e-01 9.2885736826524901e-02 0.0000000000000000e+00  3.3922245517621757e-01 6.5810562484651322e-02 0.0000000000000000e+00  3.3475076389756209e-01 -3.0102817943214520e-03 0.0000000000000000e+00  3.3147066959976940e-01 2.8552332151415880e-02 0.0000000000000000e+00  3.2531262307174363e-01 -6.8395989982998590e-02 0.0000000000000000e+00  3.2658384380341948e-01 -3.1155221120945074e-02 0.0000000000000000e+00  0.0000000000000000e+00 0.0000000000000000e+00 0.0000000000000000e+00  1.2374216523466033e-01 3.0908858240395237e-01 0.0000000000000000e+00  3.7837076694077883e-02 2.6445402637835352e-01 0.0000000000000000e+00  1.7069148267203144e-01 2.8869570363056934e-01 0.0000000000000000e+00  2.0802622369416285e-01 2.5956352785929088e-01 0.0000000000000000e+00  2.7380833453763231e-01 2.2820709395430835e-01 0.0000000000000000e+00  2.9786846120366506e-01 1.7114778801271191e-01 0.0000000000000000e+00  3.1122413629114171e-01 1.1177899418172126e-01 0.0000000000000000e+00  3.1619751849039818e-01 -8.9661772178758717e-02 0.0000000000000000e+00  8.6363730318501586e-02 2.7594441657753693e-01 0.0000000000000000e+00  3.1142958324186304e-01 -1.3035014100281742e-01 0.0000000000000000e+00  2.3752351722689305e-01 2.2556426169653673e-01 0.0000000000000000e+00  3.1623740367030834e-01 5.5868408669368326e-02 0.0000000000000000e+00  3.1549674391204074e-01 1.5010440708933433e-03 0.0000000000000000e+00  3.1409410783814057e-01 -4.6753740005160194e-02 0.0000000000000000e+00  5.7245144998194983e-02 2.4573846484653794e-01 0.0000000000000000e+00  2.9863254620374763e-01 -1.5016060302083883e-01 0.0000000000000000e+00  0.0000000000000000e+00 0.0000000000000000e+00 0.0000000000000000e+00  1.3123923490017345e-01 2.6481465804739124e-01 0.0000000000000000e+00  1.6820503618453767e-01 2.4411136883381671e-01 0.0000000000000000e+00  2.0071496110713036e-01 2.1493504904092139e-01 0.0000000000000000e+00  2.6427243060372185e-01 1.7919110939984215e-01 0.0000000000000000e+00  2.8318662355086927e-01 1.2898078900732249e-01 0.0000000000000000e+00  2.9381945911555563e-01 7.6352012691552285e-02 0.0000000000000000e+00  3.0270782364962717e-01 -9.5237302478033622e-02 0.0000000000000000e+00  9.0333307908125618e-02 2.3568014191560760e-01 0.0000000000000000e+00  2.3147886066605852e-02 2.1568797871082296e-01 0.0000000000000000e+00  2.9330252969416870e-01 -1.9077984045408286e-01 0.0000000000000000e+00  2.7183876097463305e-01 -2.5044331078780535e-01 0.0000000000000000e+00  2.7821339278973301e-01 -2.1487565710312087e-01 0.0000000000000000e+00  2.4612936323721907e-01 -3.0941305925193247e-01 0.0000000000000000e+00  2.5492370655811580e-01 -2.7202578344997258e-01 0.0000000000000000e+00  2.2813621617388813e-01 1.7962065517448497e-01 0.0000000000000000e+00  2.9768502783650852e-01 2.3331235860331895e-02 0.0000000000000000e+00  2.9747444991498839e-01 -3.0381285942593664e-02 0.0000000000000000e+00  3.0180887739550816e-01 -6.2756412210851473e-02 0.0000000000000000e+00  5.1113554026248627e-02 2.1534548971936457e-01 0.0000000000000000e+00  2.8955783270011454e-01 -1.3001512050710404e-01 0.0000000000000000e+00  2.2727603864392723e-01 -3.2860879801435072e-01 0.0000000000000000e+00  2.1624575709540586e-01 -3.6867575177333350e-01 0.0000000000000000e+00  0.0000000000000000e+00 0.0000000000000000e+00 0.0000000000000000e+00  1.3158438707875039e-01 2.2465255133546744e-01 0.0000000000000000e+00  1.6364418890159829e-01 2.0362873851411856e-01 0.0000000000000000e+00  1.9131300159606293e-01 1.7554714090840925e-01 0.0000000000000000e+00  2.4929745757805846e-01 1.3869597847209983e-01 0.0000000000000000e+00  2.6445885208231529e-01 9.3147468831620756e-02 0.0000000000000000e+00  2.7300493864020559e-01 4.5858766912370938e-02 0.0000000000000000e+00  2.8710423271827323e-01 -8.1680194000022521e-02 0.0000000000000000e+00  7.0626524707126603e-02 2.0345289137714084e-01 0.0000000000000000e+00  2.0661812481945100e-02 1.8237644881091533e-01 0.0000000000000000e+00  2.8022075358019205e-01 -1.7248345619755942e-01 0.0000000000000000e+00  2.5908168377754742e-01 -2.2471681821283881e-01 0.0000000000000000e+00  2.3269383581714556e-01 -2.7577930216088842e-01 0.0000000000000000e+00  1.9337718466210452e-01 -3.8326839383500139e-01 0.0000000000000000e+00  1.8052622660009221e-01 -4.2590790558200003e-01 0.0000000000000000e+00  1.3685426201136094e-01 -4.7753181364084113e-01 0.0000000000000000e+00  1.5641372173221590e-01 -4.3326198329355581e-01 0.0000000000000000e+00  8.9679734163185559e-02 -5.0682194648533541e-01 0.0000000000000000e+00  1.0444196542796685e-01 -4.7409892787727731e-01 0.0000000000000000e+00  9.8484157080221027e-02 2.0111676583216370e-01 0.0000000000000000e+00  2.1431680044881715e-01 1.4163475635235018e-01 0.0000000000000000e+00  2.7535988965337810e-01 -2.2751032173055344e-03 0.0000000000000000e+00  4.3752092786374409e-02 1.8448845068183836e-01 0.0000000000000000e+00  2.7429914798052457e-01 -1.3444041807907539e-01 0.0000000000000000e+00  2.0217058533573423e-01 -3.2442295893975259e-01 0.0000000000000000e+00  6.4850484169572314e-02 -4.6661802502201577e-01 0.0000000000000000e+00  0.0000000000000000e+00 0.0000000000000000e+00 0.0000000000000000e+00  0.0000000000000000e+00 0.0000000000000000e+00 0.0000000000000000e+00  1.2969716303844522e-01 1.8872591569945313e-01 0.0000000000000000e+00  1.5701108364311295e-01 1.6728243535950338e-01 0.0000000000000000e+00  1.8030939644954125e-01 1.4029164751293169e-01 0.0000000000000000e+00  2.3190877693256565e-01 1.0357154740709772e-01 0.0000000000000000e+00  2.4375136251728974e-01 6.2295404596521164e-02 0.0000000000000000e+00  2.5002176548105953e-01 1.9325811404167028e-02 0.0000000000000000e+00  2.7212740325740892e-01 -5.0158172231350613e-02 0.0000000000000000e+00  6.8463203955592800e-02 1.7581248317062848e-01 0.0000000000000000e+00  1.7513089148438764e-02 1.5413180874039026e-01 0.0000000000000000e+00  2.5810944826811877e-01 -1.8188218823641333e-01 0.0000000000000000e+00  2.6372614072717987e-01 -9.6913220664341090e-02 0.0000000000000000e+00  2.3554064825604906e-01 -2.2979312041685160e-01 0.0000000000000000e+00  2.0709398561842735e-01 -2.7486329173088181e-01 0.0000000000000000e+00  1.6402437219201768e-01 -3.6840373506727531e-01 0.0000000000000000e+00  1.0731983732751932e-01 -3.9570136808951439e-01 0.0000000000000000e+00  4.6116447024165085e-02 -3.9463874506309332e-01 0.0000000000000000e+00  0.0000000000000000e+00 0.0000000000000000e+00 0.0000000000000000e+00  1.0021072128792384e-01 1.7149700887548824e-01 0.0000000000000000e+00  1.9906492051824440e-01 1.0851874408752647e-01 0.0000000000000000e+00  2.5067998501554062e-01 -2.3843038444527048e-02 0.0000000000000000e+00  3.7517633711189019e-02 1.5712870523703554e-01 0.0000000000000000e+00  2.5031500616549929e-01 -1.4276235779672636e-01 0.0000000000000000e+00  1.7018278428835651e-01 -3.1424192178129218e-01 0.0000000000000000e+00  0.0000000000000000e+00 0.0000000000000000e+00 0.0000000000000000e+00  1.2603559973578393e-01 1.5648477042207207e-01 0.0000000000000000e+00  1.4880460298102691e-01 1.3536933085043298e-01 0.0000000000000000e+00  1.6800415195549645e-01 1.0932950993820055e-01 0.0000000000000000e+00  2.1308239775160137e-01 7.3123660222471784e-02 0.0000000000000000e+00  2.2190862716190837e-01 3.5731209980791830e-02 0.0000000000000000e+00  2.2555414130577034e-01 -2.8920295025718565e-03 0.0000000000000000e+00  2.4606693773194052e-01 -6.6811641964690083e-02 0.0000000000000000e+00  7.5607932625607679e-02 1.5277059474605378e-01 0.0000000000000000e+00  5.4801252733654632e-02 1.5232682355591562e-01 0.0000000000000000e+00  1.4493451805545782e-02 1.2990963086887053e-01 0.0000000000000000e+00  2.3158800599329599e-01 -1.8661606716979054e-01 0.0000000000000000e+00  2.3635578369489132e-01 -1.0873362968909930e-01 0.0000000000000000e+00  2.0643684771078172e-01 -2.2734799849443085e-01 0.0000000000000000e+00  1.7426918644768921e-01 -2.6334458107303199e-01 0.0000000000000000e+00  1.2565441947732439e-01 -3.3908142466885810e-01 0.0000000000000000e+00  3.8980490510781445e-02 -3.3194419245402251e-01 0.0000000000000000e+00  0.0000000000000000e+00 0.0000000000000000e+00 0.0000000000000000e+00  9.8911256439843553e-02 1.4376881037393999e-01 0.0000000000000000e+00  1.8297666148506544e-01 7.9778138420804848e-02 0.0000000000000000e+00  2.2422303966750046e-01 -4.1674220747085343e-02 0.0000000000000000e+00  3.1703280478662846e-02 1.3159506630053233e-01 0.0000000000000000e+00  2.2102450932575202e-01 -1.4861146141601769e-01 0.0000000000000000e+00  1.3367863046366507e-01 -2.8897686089719682e-01 0.0000000000000000e+00  7.7798931996878276e-02 -3.3584820430199086e-01 0.0000000000000000e+00  0.0000000000000000e+00 0.0000000000000000e+00 0.0000000000000000e+00  1.2072561615039638e-01 1.2784889912423081e-01 0.0000000000000000e+00  1.3951439447574088e-01 1.0730746130656298e-01 0.0000000000000000e+00  1.5479343572405971e-01 8.2785974168399959e-02 0.0000000000000000e+00  1.9342912692958236e-01 4.7418382517972243e-02 0.0000000000000000e+00  1.9933521432921894e-01 1.3397544209805688e-02 0.0000000000000000e+00  2.0038838794042499e-01 -2.0955001522178048e-02 0.0000000000000000e+00  2.1765986404746493e-01 -7.9483830793505836e-02 0.0000000000000000e+00  7.5779331782767800e-02 1.2985464168327662e-01 0.0000000000000000e+00  5.4769863554074434e-02 1.3417183384251233e-01 0.0000000000000000e+00  1.1211516922142759e-02 1.0784744421471523e-01 0.0000000000000000e+00  2.0000460911620471e-01 -1.8599645609198212e-01 0.0000000000000000e+00  2.0591988732208014e-01 -1.1597712835857329e-01 0.0000000000000000e+00  1.7254419082198166e-01 -2.1866471483533570e-01 0.0000000000000000e+00  1.3732967733109205e-01 -2.4296376945596984e-01 0.0000000000000000e+00  8.4755075164684654e-02 -2.9423748241702669e-01 0.0000000000000000e+00  3.2734537703729014e-02 -2.6743661704642396e-01 0.0000000000000000e+00  0.0000000000000000e+00 0.0000000000000000e+00 0.0000000000000000e+00  9.6102128221393732e-02 1.1877249104097694e-01 0.0000000000000000e+00  1.6629463541666828e-01 5.5243651725060017e-02 0.0000000000000000e+00  1.9664347563310622e-01 -5.5118794670513400e-02 0.0000000000000000e+00  3.7453412617475437e-02 1.1451786760164985e-01 0.0000000000000000e+00  2.1737488487506909e-02 1.0813768809484828e-01 0.0000000000000000e+00  1.8883690041051879e-01 -1.4986494078317694e-01 0.0000000000000000e+00  9.4918872825221101e-02 -2.5325835722694207e-01 0.0000000000000000e+00  0.0000000000000000e+00 0.0000000000000000e+00 0.0000000000000000e+00  1.1410499577149713e-01 1.0283965374510891e-01 0.0000000000000000e+00  1.2930643747758616e-01 8.2938979083971229e-02 0.0000000000000000e+00  1.4115285896074539e-01 6.0131007990533461e-02 0.0000000000000000e+00  1.7356149400413307e-01 2.5946735186110528e-02 0.0000000000000000e+00  1.7650455884355687e-01 -4.4560062381335504e-03 0.0000000000000000e+00  1.7514535683005431e-01 -3.4939046765234523e-02 0.0000000000000000e+00  1.8813622886477099e-01 -8.8076683856947835e-02 0.0000000000000000e+00  7.5021019429674166e-02 1.0832177418942587e-01 0.0000000000000000e+00  5.6493060741812415e-02 1.1535752061831528e-01 0.0000000000000000e+00  1.0033102547803697e-02 9.0836317892382556e-02 0.0000000000000000e+00  1.6559514974207257e-01 -1.7939451114224036e-01 0.0000000000000000e+00  1.7438187082509271e-01 -1.1858008402248355e-01 0.0000000000000000e+00  1.3629969632351643e-01 -2.0259017630101062e-01 0.0000000000000000e+00  1.0129603091186319e-01 -2.1556894769564666e-01 0.0000000000000000e+00  5.1073778978042869e-02 -2.4187019071769020e-01 0.0000000000000000e+00  0.0000000000000000e+00 0.0000000000000000e+00 0.0000000000000000e+00  9.1925263953476749e-02 9.6632619585153234e-02 0.0000000000000000e+00  1.4936111243317116e-01 3.4990851860460484e-02 0.0000000000000000e+00  1.6915496235020419e-01 -6.4342466598841852e-02 0.0000000000000000e+00  4.0849413965161036e-02 9.9553115328708294e-02 0.0000000000000000e+00  2.3555624551394191e-02 9.5080631527176815e-02 0.0000000000000000e+00  1.5546073080841441e-01 -1.4576222287819915e-01 0.0000000000000000e+00  6.3283018599965282e-02 -2.1317426944071277e-01 0.0000000000000000e+00  1.4618172891098737e-02 -1.9845110523166523e-01 0.0000000000000000e+00  0.0000000000000000e+00 0.0000000000000000e+00 0.0000000000000000e+00  1.0656576556945938e-01 8.1073719349812556e-02 0.0000000000000000e+00  1.1845798902119273e-01 6.2306534427334470e-02 0.0000000000000000e+00  1.2730661176555805e-01 4.1108518643464938e-02 0.0000000000000000e+00  1.5380851950578414e-01 8.4724097382809400e-03 0.0000000000000000e+00  1.5416193329087713e-01 -1.8268378360636151e-02 0.0000000000000000e+00  1.5045143768799998e-01 -4.4654372486471472e-02 0.0000000000000000e+00  1.5861276947040875e-01 -9.2093106153662091e-02 0.0000000000000000e+00  7.2776365530440285e-02 8.9367385044351086e-02 0.0000000000000000e+00  5.7281388269181124e-02 9.7044662361523856e-02 0.0000000000000000e+00  8.9741807524655152e-03 7.7051016611336620e-02 0.0000000000000000e+00  1.3131133631594646e-01 -1.6760970261734234e-01 0.0000000000000000e+00  1.4353174785551553e-01 -1.1692733645464294e-01 0.0000000000000000e+00  1.0182844612208715e-01 -1.8138056184497747e-01 0.0000000000000000e+00  7.0326085214234488e-02 -1.8490755883392346e-01 0.0000000000000000e+00  2.6467882131332037e-02 -1.8495507548097262e-01 0.0000000000000000e+00  0.0000000000000000e+00 0.0000000000000000e+00 0.0000000000000000e+00  8.6655473923556159e-02 7.7424989580140727e-02 0.0000000000000000e+00  1.3269617161842617e-01 1.8485845750310460e-02 0.0000000000000000e+00  1.4272365059611364e-01 -6.9685830439143434e-02 0.0000000000000000e+00  4.2835442464641833e-02 8.5825745808962184e-02 0.0000000000000000e+00  3.0789544334093734e-02 8.7084359199575009e-02 0.0000000000000000e+00  1.9063724014718300e-02 7.8278814090860641e-02 0.0000000000000000e+00  1.2362373146239498e-01 -1.3725301315684255e-01 0.0000000000000000e+00  4.3593324923771930e-02 -1.8048571995774981e-01 0.0000000000000000e+00  0.0000000000000000e+00 0.0000000000000000e+00 0.0000000000000000e+00  9.8352840742057190e-02 6.2339900610149587e-02 0.0000000000000000e+00  1.0739024545510931e-01 4.4933691032022507e-02 0.0000000000000000e+00  1.1351039587906174e-01 2.5683237517821360e-02 0.0000000000000000e+00  1.3452577721257353e-01 -4.9934526070363637e-03 0.0000000000000000e+00  1.3278560933223660e-01 -2.8412626843351343e-02 0.0000000000000000e+00  1.2723675959078540e-01 -5.0715119268190154e-02 0.0000000000000000e+00  1.3071430057536937e-01 -9.2183102418965435e-02 0.0000000000000000e+00  6.9468075187611542e-02 7.2524978953986630e-02 0.0000000000000000e+00  5.6520610389918964e-02 8.1280480924207615e-02 0.0000000000000000e+00  7.6291300833828627e-03 6.4819857070719744e-02 0.0000000000000000e+00  9.9492595632911074e-02 -1.5157263376052832e-01 0.0000000000000000e+00  1.1473198041540199e-01 -1.1132484242822339e-01 0.0000000000000000e+00  7.2210059116168679e-02 -1.5747116232112857e-01 0.0000000000000000e+00  4.1480469395400107e-02 -1.5304877884319268e-01 0.0000000000000000e+00  1.8153325292832277e-02 -1.4766833212985059e-01 0.0000000000000000e+00  0.0000000000000000e+00 0.0000000000000000e+00 0.0000000000000000e+00  8.0655812571304150e-02 6.0828801200231687e-02 0.0000000000000000e+00  1.1657172103815058e-01 5.3661757500786259e-03 0.0000000000000000e+00  1.1805595544247405e-01 -7.1308082901401712e-02 0.0000000000000000e+00  2.9798896421933022e-02 7.4362036213013308e-02 0.0000000000000000e+00  4.3307232245233848e-02 7.2741631359937456e-02 0.0000000000000000e+00  1.6403140966950922e-02 6.5789566892710982e-02 0.0000000000000000e+00  9.5144285601940673e-02 -1.2563393987811508e-01 0.0000000000000000e+00  0.0000000000000000e+00 0.0000000000000000e+00 0.0000000000000000e+00  8.9699181819022561e-02 4.6623093462390124e-02 0.0000000000000000e+00  9.6329902683071289e-02 3.0521596747978594e-02 0.0000000000000000e+00  1.0019328836227580e-01 1.3319118443069973e-02 0.0000000000000000e+00  1.1629136802926406e-01 -1.5056104575107671e-02 0.0000000000000000e+00  1.1273118419757769e-01 -3.5040051837335252e-02 0.0000000000000000e+00  1.0600034063502713e-01 -5.3718440207726252e-02 0.0000000000000000e+00  1.0543934970984997e-01 -8.9148956451376257e-02 0.0000000000000000e+00  6.5303461308359206e-02 5.7969784645228825e-02 0.0000000000000000e+00  5.4756025506465592e-02 6.6862287412796609e-02 0.0000000000000000e+00  6.3649411880794685e-03 5.4260630240036925e-02 0.0000000000000000e+00  7.2362117619511029e-02 -1.3341450658116469e-01 0.0000000000000000e+00  8.9434247917740628e-02 -1.0304298679766870e-01 0.0000000000000000e+00  4.8641983409558019e-02 -1.3320394082347844e-01 0.0000000000000000e+00  1.5313300920496020e-02 -1.2280549401866483e-01 0.0000000000000000e+00  0.0000000000000000e+00 0.0000000000000000e+00 0.0000000000000000e+00  7.4176547817238744e-02 4.6640154726846732e-02 0.0000000000000000e+00  1.0120683939852484e-01 -4.5076164948895537e-03 0.0000000000000000e+00  9.6024508949609622e-02 -7.0113373287772132e-02 0.0000000000000000e+00  3.4229917674487097e-02 6.4992615904740536e-02 0.0000000000000000e+00  4.2334731052151547e-02 6.0626605704083576e-02 0.0000000000000000e+00  2.3952780929985016e-02 6.1584884971407683e-02 0.0000000000000000e+00  1.3771462762680162e-02 5.5187287290207117e-02 0.0000000000000000e+00  7.0795003460199180e-02 -1.1205127781504994e-01 0.0000000000000000e+00  2.7935088229727931e-02 -1.2501752044377457e-01 0.0000000000000000e+00  0.0000000000000000e+00 0.0000000000000000e+00 0.0000000000000000e+00  8.0967181938355476e-02 3.3510365509844139e-02 0.0000000000000000e+00  8.5464547079440137e-02 1.8969180877897791e-02 0.0000000000000000e+00  8.7547069020712770e-02 3.6300927560786603e-03 0.0000000000000000e+00  9.9370512101916136e-02 -2.2200899620175376e-02 0.0000000000000000e+00  9.4542311142189056e-02 -3.8880969212416454e-02 0.0000000000000000e+00  8.6958015642076086e-02 -5.4041416710964220e-02 0.0000000000000000e+00  8.3224857733180835e-02 -8.3602280648777283e-02 0.0000000000000000e+00  6.0603667365134090e-02 4.5466620807187517e-02 0.0000000000000000e+00  5.2146608743883008e-02 5.4172567321360221e-02 0.0000000000000000e+00  5.3519371621026926e-03 4.53821303901