<?xml version="1.0"?>
<VTKFile type="UnstructuredGrid"  version="0.1"  >
<UnstructuredGrid>
<Piece  NumberOfPoints="4466" NumberOfCells="8228">
<Points>
<DataArray  type="Float64"  NumberOfComponents="3"  format="ascii">0.139 0 0  -0.139 0 0  0.111 0 0  -0.111 0 0  0 -0.139 0  0 -0.111 0  0.139 0.28 0  0.111 0.28 0  -0.139 0.28 0  -0.111 0.28 0  -0.139 0.2772000000000133 0  -0.139 0.2744000000000156 0  -0.139 0.271600000000018 0  -0.139 0.2688000000000217 0  -0.139 0.266000000000038 0  -0.139 0.2632000000000468 0  -0.139 0.2604000000000492 0  -0.139 0.2576000000000516 0  -0.139 0.254800000000054 0  -0.139 0.2520000000000564 0  -0.139 0.2492000000000588 0  -0.139 0.2464000000000611 0  -0.139 0.2436000000000635 0  -0.139 0.2408000000000709 0  -0.139 0.2380000000000802 0  -0.139 0.2352000000000921 0  -0.139 0.2324000000001043 0  -0.139 0.2296000000001082 0  -0.139 0.2268000000001192 0  -0.139 0.2240000000001323 0  -0.139 0.2212000000001416 0  -0.139 0.21840000000015 0  -0.139 0.2156000000001524 0  -0.139 0.2128000000001587 0  -0.139 0.210000000000168 0  -0.139 0.2072000000001774 0  -0.139 0.2044000000001836 0  -0.139 0.201600000000186 0  -0.139 0.1988000000001951 0  -0.139 0.1960000000002114 0  -0.139 0.1932000000002239 0  -0.139 0.1904000000002281 0  -0.139 0.1876000000002304 0  -0.139 0.1848000000002357 0  -0.139 0.1820000000002493 0  -0.139 0.1792000000002651 0  -0.139 0.1764000000002725 0  -0.139 0.1736000000002749 0  -0.139 0.1708000000002822 0  -0.139 0.168000000000298 0  -0.139 0.1652000000003117 0  -0.139 0.1624000000003169 0  -0.139 0.1596000000003193 0  -0.139 0.1568000000003234 0  -0.139 0.1540000000003327 0  -0.139 0.151200000000342 0  -0.139 0.1484000000003504 0  -0.139 0.1456000000003552 0  -0.139 0.1428000000003684 0  -0.139 0.1400000000003793 0  -0.139 0.1372000000003732 0  -0.139 0.1344000000003647 0  -0.139 0.1316000000003602 0  -0.139 0.1288000000003502 0  -0.139 0.1260000000003456 0  -0.139 0.1232000000003373 0  -0.139 0.1204000000003259 0  -0.139 0.1176000000003211 0  -0.139 0.1148000000003137 0  -0.139 0.1120000000003065 0  -0.139 0.1092000000003015 0  -0.139 0.106400000000292 0  -0.139 0.1036000000002874 0  -0.139 0.1008000000002779 0  -0.139 0.09800000000027287 0  -0.139 0.09520000000026577 0  -0.139 0.09240000000025839 0  -0.139 0.08960000000025362 0  -0.139 0.08680000000024216 0  -0.139 0.08400000000023394 0  -0.139 0.08120000000022939 0  -0.139 0.07840000000021943 0  -0.139 0.07560000000021488 0  -0.139 0.07280000000020645 0  -0.139 0.0700000000002004 0  -0.139 0.06720000000019433 0  -0.139 0.06440000000018589 0  -0.139 0.06160000000018134 0  -0.139 0.05880000000017141 0  -0.139 0.05600000000016683 0  -0.139 0.05320000000015862 0  -0.139 0.05040000000014716 0  -0.139 0.04760000000014239 0  -0.139 0.04480000000013501 0  -0.139 0.04200000000012791 0  -0.139 0.03920000000012291 0  -0.139 0.03640000000011337 0  -0.139 0.03360000000010885 0  -0.139 0.03080000000009933 0  -0.139 0.02800000000008024 0  -0.139 0.02520000000006006 0  -0.139 0.02240000000005682 0  -0.139 0.01960000000005918 0  -0.139 0.0168000000000581 0  -0.139 0.01400000000004015 0  -0.139 0.0112000000000243 0  -0.139 0.008400000000025387 0  -0.139 0.005600000000027749 0  -0.139 0.00280000000002234 0  0.139 0.002799999999994866 0  0.139 0.005599999999989789 0  0.139 0.008399999999984429 0  0.139 0.01119999999997854 0  0.139 0.0139999999999726 0  0.139 0.01679999999996711 0  0.139 0.01959999999996269 0  0.139 0.02239999999995932 0  0.139 0.02519999999995598 0  0.139 0.02799999999995264 0  0.139 0.03079999999994935 0  0.139 0.03359999999994638 0  0.139 0.03639999999994045 0  0.139 0.03919999999993277 0  0.139 0.04199999999992482 0  0.139 0.04479999999991541 0  0.139 0.04759999999990703 0  0.139 0.05039999999989928 0  0.139 0.05319999999988988 0  0.139 0.05599999999988128 0  0.139 0.05879999999987359 0  0.139 0.06159999999986434 0  0.139 0.06439999999985492 0  0.139 0.06719999999984551 0  0.139 0.0699999999998388 0  0.139 0.07279999999983211 0  0.139 0.0755999999998227 0  0.139 0.07839999999981329 0  0.139 0.08119999999980386 0  0.139 0.08399999999979445 0  0.139 0.08679999999978688 0  0.139 0.08959999999978095 0  0.139 0.09239999999977164 0  0.139 0.09519999999976225 0  0.139 0.09799999999975285 0  0.139 0.1007999999997434 0  0.139 0.103599999999735 0  0.139 0.1063999999997291 0  0.139 0.1091999999997206 0  0.139 0.1119999999997113 0  0.139 0.1147999999997018 0  0.139 0.1175999999996924 0  0.139 0.1203999999996832 0  0.139 0.1231999999996772 0  0.139 0.1259999999996713 0  0.139 0.128799999999663 0  0.139 0.1315999999996544 0  0.139 0.1343999999996495 0  0.139 0.1371999999996363 0  0.139 0.1399999999996253 0  0.139 0.1427999999996313 0  0.139 0.1455999999996397 0  0.139 0.1483999999996442 0  0.139 0.1511999999996541 0  0.139 0.1539999999996585 0  0.139 0.1567999999996667 0  0.139 0.1595999999996781 0  0.139 0.1623999999996828 0  0.139 0.1651999999996901 0  0.139 0.1679999999996972 0  0.139 0.1707999999997021 0  0.139 0.1735999999997115 0  0.139 0.176399999999716 0  0.139 0.1791999999997255 0  0.139 0.1819999999997303 0  0.139 0.1847999999997374 0  0.139 0.1875999999997447 0  0.139 0.1903999999997494 0  0.139 0.1931999999997607 0  0.139 0.1959999999997689 0  0.139 0.1987999999997733 0  0.139 0.2015999999997832 0  0.139 0.2043999999997876 0  0.139 0.207199999999796 0  0.139 0.2099999999998019 0  0.139 0.2127999999998079 0  0.139 0.2155999999998163 0  0.139 0.2183999999998207 0  0.139 0.2211999999998306 0  0.139 0.2239999999998351 0  0.139 0.2267999999998432 0  0.139 0.2295999999998546 0  0.139 0.2323999999998592 0  0.139 0.2351999999998665 0  0.139 0.2379999999998735 0  0.139 0.2407999999998784 0  0.139 0.2435999999998878 0  0.139 0.2463999999998923 0  0.139 0.2491999999999017 0  0.139 0.2519999999999207 0  0.139 0.2547999999999408 0  0.139 0.2575999999999439 0  0.139 0.2603999999999415 0  0.139 0.2631999999999425 0  0.139 0.2659999999999604 0  0.139 0.2687999999999761 0  0.139 0.2715999999999749 0  0.139 0.2743999999999725 0  0.139 0.2771999999999778 0  0.111 0.2772000000000133 0  0.111 0.2744000000000156 0  0.111 0.271600000000018 0  0.111 0.2688000000000217 0  0.111 0.266000000000038 0  0.111 0.2632000000000468 0  0.111 0.2604000000000492 0  0.111 0.2576000000000516 0  0.111 0.254800000000054 0  0.111 0.2520000000000564 0  0.111 0.2492000000000588 0  0.111 0.2464000000000611 0  0.111 0.2436000000000635 0  0.111 0.2408000000000709 0  0.111 0.2380000000000802 0  0.111 0.2352000000000921 0  0.111 0.2324000000001043 0  0.111 0.2296000000001082 0  0.111 0.2268000000001192 0  0.111 0.2240000000001323 0  0.111 0.2212000000001416 0  0.111 0.21840000000015 0  0.111 0.2156000000001524 0  0.111 0.2128000000001587 0  0.111 0.210000000000168 0  0.111 0.2072000000001774 0  0.111 0.2044000000001836 0  0.111 0.201600000000186 0  0.111 0.1988000000001951 0  0.111 0.1960000000002114 0  0.111 0.1932000000002239 0  0.111 0.1904000000002281 0  0.111 0.1876000000002304 0  0.111 0.1848000000002357 0  0.111 0.1820000000002493 0  0.111 0.1792000000002651 0  0.111 0.1764000000002725 0  0.111 0.1736000000002749 0  0.111 0.1708000000002822 0  0.111 0.168000000000298 0  0.111 0.1652000000003117 0  0.111 0.1624000000003169 0  0.111 0.1596000000003193 0  0.111 0.1568000000003234 0  0.111 0.1540000000003327 0  0.111 0.151200000000342 0  0.111 0.1484000000003504 0  0.111 0.1456000000003552 0  0.111 0.1428000000003684 0  0.111 0.1400000000003793 0  0.111 0.1372000000003732 0  0.111 0.1344000000003647 0  0.111 0.1316000000003602 0  0.111 0.1288000000003502 0  0.111 0.1260000000003456 0  0.111 0.1232000000003373 0  0.111 0.1204000000003259 0  0.111 0.1176000000003211 0  0.111 0.1148000000003137 0  0.111 0.1120000000003065 0  0.111 0.1092000000003015 0  0.111 0.106400000000292 0  0.111 0.1036000000002874 0  0.111 0.1008000000002779 0  0.111 0.09800000000027287 0  0.111 0.09520000000026577 0  0.111 0.09240000000025839 0  0.111 0.08960000000025362 0  0.111 0.08680000000024216 0  0.111 0.08400000000023394 0  0.111 0.08120000000022939 0  0.111 0.07840000000021943 0  0.111 0.07560000000021488 0  0.111 0.07280000000020645 0  0.111 0.0700000000002004 0  0.111 0.06720000000019433 0  0.111 0.06440000000018589 0  0.111 0.06160000000018134 0  0.111 0.05880000000017141 0  0.111 0.05600000000016683 0  0.111 0.05320000000015862 0  0.111 0.05040000000014716 0  0.111 0.04760000000014239 0  0.111 0.04480000000013501 0  0.111 0.04200000000012791 0  0.111 0.03920000000012291 0  0.111 0.03640000000011337 0  0.111 0.03360000000010885 0  0.111 0.03080000000009933 0  0.111 0.02800000000008024 0  0.111 0.02520000000006006 0  0.111 0.02240000000005682 0  0.111 0.01960000000005918 0  0.111 0.0168000000000581 0  0.111 0.01400000000004015 0  0.111 0.0112000000000243 0  0.111 0.008400000000025387 0  0.111 0.005600000000027749 0  0.111 0.00280000000002234 0  -0.111 0.002799999999994866 0  -0.111 0.005599999999989789 0  -0.111 0.008399999999984429 0  -0.111 0.01119999999997854 0  -0.111 0.0139999999999726 0  -0.111 0.01679999999996711 0  -0.111 0.01959999999996269 0  -0.111 0.02239999999995932 0  -0.111 0.02519999999995598 0  -0.111 0.02799999999995264 0  -0.111 0.03079999999994935 0  -0.111 0.03359999999994638 0  -0.111 0.03639999999994045 0  -0.111 0.03919999999993277 0  -0.111 0.04199999999992482 0  -0.111 0.04479999999991541 0  -0.111 0.04759999999990703 0  -0.111 0.05039999999989928 0  -0.111 0.05319999999988988 0  -0.111 0.05599999999988128 0  -0.111 0.05879999999987359 0  -0.111 0.06159999999986434 0  -0.111 0.06439999999985492 0  -0.111 0.06719999999984551 0  -0.111 0.0699999999998388 0  -0.111 0.07279999999983211 0  -0.111 0.0755999999998227 0  -0.111 0.07839999999981329 0  -0.111 0.08119999999980386 0  -0.111 0.08399999999979445 0  -0.111 0.08679999999978688 0  -0.111 0.08959999999978095 0  -0.111 0.09239999999977164 0  -0.111 0.09519999999976225 0  -0.111 0.09799999999975285 0  -0.111 0.1007999999997434 0  -0.111 0.103599999999735 0  -0.111 0.1063999999997291 0  -0.111 0.1091999999997
[...]
<PointData  Vectors="f_68"> 
<DataArray  type="Float64"  Name="f_68"  NumberOfComponents="3" format="ascii">0.0000000000000000e+00 0.0000000000000000e+00 0.0000000000000000e+00  0.0000000000000000e+00 0.0000000000000000e+00 0.0000000000000000e+00  0.0000000000000000e+00 0.0000000000000000e+00 0.0000000000000000e+00  0.0000000000000000e+00 0.0000000000000000e+00 0.0000000000000000e+00  0.0000000000000000e+00 0.0000000000000000e+00 0.0000000000000000e+00  0.0000000000000000e+00 0.0000000000000000e+00 0.0000000000000000e+00  0.0000000000000000e+00 0.0000000000000000e+00 0.0000000000000000e+00  0.0000000000000000e+00 0.0000000000000000e+00 0.0000000000000000e+00  0.0000000000000000e+00 0.0000000000000000e+00 0.0000000000000000e+00  0.0000000000000000e+00 0.0000000000000000e+00 0.0000000000000000e+00  0.0000000000000000e+00 0.0000000000000000e+00 0.0000000000000000e+00  0.0000000000000000e+00 0.0000000000000000e+00 0.0000000000000000e+00  0.0000000000000000e+00 0.0000000000000000e+00 0.0000000000000000e+00  0.0000000000000000e+00 0.0000000000000000e+00 0.0000000000000000e+00  0.0000000000000000e+00 0.0000000000000000e+00 0.0000000000000000e+00  0.0000000000000000e+00 0.0000000000000000e+00 0.0000000000000000e+00  0.0000000000000000e+00 0.0000000000000000e+00 0.0000000000000000e+00  0.0000000000000000e+00 0.0000000000000000e+00 0.0000000000000000e+00  0.0000000000000000e+00 0.0000000000000000e+00 0.0000000000000000e+00  0.0000000000000000e+00 0.0000000000000000e+00 0.0000000000000000e+00  0.0000000000000000e+00 0.0000000000000000e+00 0.0000000000000000e+00  0.0000000000000000e+00 0.0000000000000000e+00 0.0000000000000000e+00  0.0000000000000000e+00 0.0000000000000000e+00 0.0000000000000000e+00  0.0000000000000000e+00 0.0000000000000000e+00 0.0000000000000000e+00  0.0000000000000000e+00 0.0000000000000000e+00 0.0000000000000000e+00  0.0000000000000000e+00 0.0000000000000000e+00 0.0000000000000000e+00  0.0000000000000000e+00 0.0000000000000000e+00 0.0000000000000000e+00  0.0000000000000000e+00 0.0000000000000000e+00 0.0000000000000000e+00  0.0000000000000000e+00 0.0000000000000000e+00 0.0000000000000000e+00  0.0000000000000000e+00 0.0000000000000000e+00 0.0000000000000000e+00  0.0000000000000000e+00 0.0000000000000000e+00 0.0000000000000000e+00  0.0000000000000000e+00 0.0000000000000000e+00 0.0000000000000000e+00  0.0000000000000000e+00 0.0000000000000000e+00 0.0000000000000000e+00  0.0000000000000000e+00 0.0000000000000000e+00 0.0000000000000000e+00  0.0000000000000000e+00 0.0000000000000000e+00 0.0000000000000000e+00  0.0000000000000000e+00 0.0000000000000000e+00 0.0000000000000000e+00  0.0000000000000000e+00 0.0000000000000000e+00 0.0000000000000000e+00  0.0000000000000000e+00 0.0000000000000000e+00 0.0000000000000000e+00  0.0000000000000000e+00 0.0000000000000000e+00 0.0000000000000000e+00  0.0000000000000000e+00 0.0000000000000000e+00 0.0000000000000000e+00  0.0000000000000000e+00 0.0000000000000000e+00 0.0000000000000000e+00  0.0000000000000000e+00 0.0000000000000000e+00 0.0000000000000000e+00  0.0000000000000000e+00 0.0000000000000000e+00 0.0000000000000000e+00  0.0000000000000000e+00 0.0000000000000000e+00 0.0000000000000000e+00  0.0000000000000000e+00 0.0000000000000000e+00 0.0000000000000000e+00  0.0000000000000000e+00 0.0000000000000000e+00 0.0000000000000000e+00  0.0000000000000000e+00 0.0000000000000000e+00 0.0000000000000000e+00  0.0000000000000000e+00 0.0000000000000000e+00 0.0000000000000000e+00  0.0000000000000000e+00 0.0000000000000000e+00 0.0000000000000000e+00  0.0000000000000000e+00 0.0000000000000000e+00 0.0000000000000000e+00  0.0000000000000000e+00 0.0000000000000000e+00 0.0000000000000000e+00  0.0000000000000000e+00 0.0000000000000000e+00 0.0000000000000000e+00  0.0000000000000000e+00 0.0000000000000000e+00 0.0000000000000000e+00  0.0000000000000000e+00 0.0000000000000000e+00 0.0000000000000000e+00  0.0000000000000000e+00 0.0000000000000000e+00 0.0000000000000000e+00  0.0000000000000000e+00 0.0000000000000000e+00 0.0000000000000000e+00  0.0000000000000000e+00 0.0000000000000000e+00 0.0000000000000000e+00  0.0000000000000000e+00 0.0000000000000000e+00 0.0000000000000000e+00  0.0000000000000000e+00 0.0000000000000000e+00 0.0000000000000000e+00  0.0000000000000000e+00 0.0000000000000000e+00 0.0000000000000000e+00  0.0000000000000000e+00 0.0000000000000000e+00 0.0000000000000000e+00  0.0000000000000000e+00 0.0000000000000000e+00 0.0000000000000000e+00  0.0000000000000000e+00 0.0000000000000000e+00 0.0000000000000000e+00  0.0000000000000000e+00 0.0000000000000000e+00 0.0000000000000000e+00  0.0000000000000000e+00 0.0000000000000000e+00 0.0000000000000000e+00  0.0000000000000000e+00 0.0000000000000000e+00 0.0000000000000000e+00  0.0000000000000000e+00 0.0000000000000000e+00 0.0000000000000000e+00  0.0000000000000000e+00 0.0000000000000000e+00 0.0000000000000000e+00  0.0000000000000000e+00 0.0000000000000000e+00 0.0000000000000000e+00  0.0000000000000000e+00 0.0000000000000000e+00 0.0000000000000000e+00  0.0000000000000000e+00 0.0000000000000000e+00 0.0000000000000000e+00  0.0000000000000000e+00 0.0000000000000000e+00 0.0000000000000000e+00  0.0000000000000000e+00 0.0000000000000000e+00 0.0000000000000000e+00  0.0000000000000000e+00 0.0000000000000000e+00 0.0000000000000000e+00  0.0000000000000000e+00 0.0000000000000000e+00 0.0000000000000000e+00  0.0000000000000000e+00 0.0000000000000000e+00 0.0000000000000000e+00  0.0000000000000000e+00 0.0000000000000000e+00 0.0000000000000000e+00  0.0000000000000000e+00 0.0000000000000000e+00 0.0000000000000000e+00  0.0000000000000000e+00 0.0000000000000000e+00 0.0000000000000000e+00  0.0000000000000000e+00 0.0000000000000000e+00 0.0000000000000000e+00  0.0000000000000000e+00 0.0000000000000000e+00 0.0000000000000000e+00  0.0000000000000000e+00 0.0000000000000000e+00 0.0000000000000000e+00  0.0000000000000000e+00 0.0000000000000000e+00 0.0000000000000000e+00  0.0000000000000000e+00 0.0000000000000000e+00 0.0000000000000000e+00  0.0000000000000000e+00 0.0000000000000000e+00 0.0000000000000000e+00  0.0000000000000000e+00 0.0000000000000000e+00 0.0000000000000000e+00  0.0000000000000000e+00 0.0000000000000000e+00 0.0000000000000000e+00  0.0000000000000000e+00 0.0000000000000000e+00 0.0000000000000000e+00  0.0000000000000000e+00 0.0000000000000000e+00 0.0000000000000000e+00  0.0000000000000000e+00 0.0000000000000000e+00 0.0000000000000000e+00  0.0000000000000000e+00 0.0000000000000000e+00 0.0000000000000000e+00  0.0000000000000000e+00 0.0000000000000000e+00 0.0000000000000000e+00  0.0000000000000000e+00 0.0000000000000000e+00 0.0000000000000000e+00  0.0000000000000000e+00 0.0000000000000000e+00 0.0000000000000000e+00  0.0000000000000000e+00 0.0000000000000000e+00 0.0000000000000000e+00  0.0000000000000000e+00 0.0000000000000000e+00 0.0000000000000000e+00  0.0000000000000000e+00 0.0000000000000000e+00 0.0000000000000000e+00  0.0000000000000000e+00 0.0000000000000000e+00 0.0000000000000000e+00  0.0000000000000000e+00 0.0000000000000000e+00 0.0000000000000000e+00  0.0000000000000000e+00 0.0000000000000000e+00 0.0000000000000000e+00  0.0000000000000000e+00 0.0000000000000000e+00 0.0000000000000000e+00  0.0000000000000000e+00 0.0000000000000000e+00 0.0000000000000000e+00  0.0000000000000000e+00 0.0000000000000000e+00 0.0000000000000000e+00  0.0000000000000000e+00 0.0000000000000000e+00 0.0000000000000000e+00  0.0000000000000000e+00 0.0000000000000000e+00 0.0000000000000000e+00  0.0000000000000000e+00 0.0000000000000000e+00 0.0000000000000000e+00  0.0000000000000000e+00 0.0000000000000000e+00 0.0000000000000000e+00  0.0000000000000000e+00 0.0000000000000000e+00 0.0000000000000000e+00  0.0000000000000000e+00 0.0000000000000000e+00 0.0000000000000000e+00  0.0000000000000000e+00 0.0000000000000000e+00 0.0000000000000000e+00  0.0000000000000000e+00 0.0000000000000000e+00 0.0000000000000000e+00  0.0000000000000000e+00 0.0000000000000000e+00 0.0000000000000000e+00  0.0000000000000000e+00 0.0000000000000000e+00 0.0000000000000000e+00  0.0000000000000000e+00 0.0000000000000000e+00 0.0000000000000000e+00  0.0000000000000000e+00 0.0000000000000000e+00 0.0000000000000000e+00  0.0000000000000000e+00 0.0000000000000000e+00 0.0000000000000000e+00  0.0000000000000000e+00 0.0000000000000000e+00 0.0000000000000000e+00  0.0000000000000000e+00 0.0000000000000000e+00 0.0000000000000000e+00  0.0000000000000000e+00 0.0000000000000000e+00 0.0000000000000000e+00  0.0000000000000000e+00 0.0000000000000000e+00 0.0000000000000000e+00  0.0000000000000000e+00 0.0000000000000000e+00 0.0000000000000000e+00  0.0000000000000000e+00 0.0000000000000000e+00 0.0000000000000000e+00  0.0000000000000000e+00 0.0000000000000000e+00 0.0000000000000000e+00  0.0000000000000000e+00 0.0000000000000000e+00 0.0000000000000000e+00  0.0000000000000000e+00 0.0000000000000000e+00 0.0000000000000000e+00  0.0000000000000000e+00 0.0000000000000000e+00 0.0000000000000000e+00  0.0000000000000000e+00 0.0000000000000000e+00 0.0000000000000000e+00  0.0000000000000000e+00 0.0000000000000000e+00 0.0000000000000000e+00  0.0000000000000000e+00 0.0000000000000000e+00 0.0000000000000000e+00  0.0000000000000000e+00 0.0000000000000000e+00 0.0000000000000000e+00  0.0000000000000000e+00 0.0000000000000000e+00 0.0000000000000000e+00  0.0000000000000000e+00 0.0000000000000000e+00 0.0000000000000000e+00  0.0000000000000000e+00 0.0000000000000000e+00 0.0000000000000000e+00  0.0000000000000000e+00 0.0000000000000000e+00 0.0000000000000000e+00  0.0000000000000000e+00 0.0000000000000000e+00 0.0000000000000000e+00  0.0000000000000000e+00 0.0000000000000000e+00 0.0000000000000000e+00  0.0000000000000000e+00 0.0000000000000000e+00 0.0000000000000000e+00  0.0000000000000000e+00 0.0000000000000000e+00 0.0000000000000000e+00  0.0000000000000000e+00 0.0000000000000000e+00 0.0000000000000000e+00  0.0000000000000000e+00 0.0000000000000000e+00 0.0000000000000000e+00  0.0000000000000000e+00 0.0000000000000000e+00 0.0000000000000000e+00  0.0000000000000000e+00 0.0000000000000000e+00 0.0000000000000000e+00  0.0000000000000000e+00 0.0000000000000000e+00 0.0000000000000000e+00  0.0000000000000000e+00 0.0000000000000000e+00 0.0000000000000000e+00  0.0000000000000000e+00 0.0000000000000000e+00 0.0000000000000000e+00  0.0000000000000000e+00 0.0000000000000000e+00 0.0000000000000000e+00  0.0000000000000000e+00 0.0000000000000000e+00 0.0000000000000000e+00  0.0000000000000000e+00 0.0000000000000000e+00 0.0000000000000000e+00  0.0000000000000000e+00 0.0000000000000000e+00 0.0000000000000000e+00  0.0000000000000000e+00 0.0000000000000000e+00 0.0000000000000000e+00  0.0000000000000000e+00 0.0000000000000000e+00 0.0000000000000000e+00  0.0000000000000000e+00 0.0000000000000000e+00 0.0000000000000000e+00  0.0000000000000000e+00 0.0000000000000000e+00 0.0000000000000000e+00  0.0000000000000000e+00 0.0000000000000000e+00 0.0000000000000000e+00  0.0000000000000000e+00 0.0000000000000000e+00 0.0000000000000000e+00  0.0000000000000000e+00 0.0000000000000000e+00 0.0000000000000000e+00  0.0000000000000000e+00 0.0000000000000000e+00 0.0000000000000000e+00  0.0000000000000000e+00 0.0000000000000000e+00 0.0000000000000000e+00  0.0000000000000000e+00 0.0000000000000000e+00 0.0000000000000000e+00  0.0000000000000000e+00 0.0000000000000000e+00 0.0000000000000000e+00  0.0000000000000000e+00 0.0000000000000000e+00 0.0000000000000000e+00  0.0000000000000000e+00 0.0000000000000000e+00 0.0000000000000000e+00  0.0000000000000000e+00 0.0000000000000000e+00 0.0000000000000000e+00  0.0000000000000000e+00 0.0000000000000000e+00 0.0000000000000000e+00  0.0000000000000000e+00 0.0000000000000000e+00 0.0000000000000000e+00  0.0000000000000000e+00 0.0000000000000000e+00 0.0000000000000000e+00  0.0000000000000000e+00 0.0000000000000000e+00 0.0000000000000000e+00  0.0000000000000000e+00 0.0000000000000000e+00 0.0000000000000000e+00  0.0000000000000000e+00 0.0000000000000000e+00 0.0000000000000000e+00  0.0000000000000000e+00 0.0000000000000000e+00 0.0000000000000000e+00  0.0000000000000000e+00 0.0000000000000000e+00 0.0000000000000000e+00  0.0000000000000000e+00 0.0000000000000000e+00 0.0000000000000000e+00  0.0000000000000000e+00 0.0000000000000000e+00 0.0000000000000000e+00  0.0000000000000000e+00 0.0000000000000000e+00 0.0000000000000000e+00  0.0000000000000000e+00 0.0000000000000000e+00 0.0000000000000000e+00  0.0000000000000000e+00 0.0000000000000000e+00 0.0000000000000000e+00  0.0000000000000000e+00 0.0000000000000000e+00 0.0000000000000000e+00  0.0000000000000000e+00 0.0000000000000000e+00 0.0000000000000000e+00  0.0000000000000000e+00 0.0000000000000000e+00 0.0000000000000000e+00  0.0000000000000000e+00 0.0000000000000000e+00 0.0000000000000000e+00  0.0000000000000000e+00 0.0000000000000000e+00 0.0000000000000000e+00  0.0000000000000000e+00 0.0000000000000000e+00 0.0000000000000000e+00  0.0000000000000000e+00 0.0000000000000000e+00 0.0000000000000000e+00  0.0000000000000000e+00 0.0000000000000000e+00 0.0000000000000000e+00  0.0000000000000000e+00 0.0000000000000000e+00 0.0000000000000000e+00  0.0000000000000000e+00 0.0000000000000000e+00 0.0000000000000000e+00  0.0000000000000000e+00 0.0000000000000000e+00 0.0000000000000000e+00  0.0000000000000000e+00 0.0000000000000000e+00 0.0000000000000000e+00  0.0000000000000000e+00 0.0000000000000000e+00 0.0000000000000000e+00  0.0000000000000000e+00 0.0000000000000000e+00 0.0000000000000000e+00  0.0000000000000000e+00 0.0000000000000000e+00 0.0000000000000000e+00  0.0000000000000000e+00 0.0000000000000000e+00 0.0000000000000000e+00  0.0000000000000000e+00 0.0000000000000000e+00 0.0000000000000000e+00  0.0000000000000000e+00 0.0000000000000000e+00 0.0000000000000000e+00  0.0000000000000000e+00 0.0000000000000000e+00 0.0000000000000000e+00  0.0000000000000000e+00 0.0000000000000000e+00 0.0000000000000000e+00  0.0000000000000000e+00 0.0000000000000000e+00 0.0000000000000000e+00  0.0000000000000000e+00 0.0000000000000000e+00 0.0000000000000000e+00  0.0000000000000000e+00 0.0000000000000000e+00 0.0000000000000000e+00  0.0000000000000000e+00 0.0000000000000000e+00 0.0000000000000000e+00  0.0000000000000000e+00 0.0000000000000000e+00 0.0000000000000000e+00  0.0000000000000000e+00 0.0000000000000000e+00 0.0000000000000000e+00  0.0000000000000000e+00 0.0000000000000000e+00 0.0000000000000000e+00  0.0000000000000000e+00 0.0000000000000000e+00 0.0000000000000000e+00  0.0000000000000000e+00 0.0000000000000000e+00 0.0000000000000000e+00  0.0000000000000000e+00 0.0000000000000000e+00 0.0000000000000000e+00  0.0000000000000000e+00 0.0000000000000000e+00 0.0000000000000000e+00  0.0000000000000000e+00 0.0000000000000000e+00 0.0000000000000000e+00  0.0000000000000000e+00 0.0000000000000000e+00 0.0000000000000000e+00  0.0000000000000000e+00 0.0000000000000000e+00 0.0000000000000000e+00  0.0000000000000000e+00 0.0000000000000000e+00 0.0000000000000000e+00  0.0000000000000000e+00 0.0000000000000000e+00 0.0000000000000000e+00  0.0000000000000000e+00 0.0000000000000000e+00 0.0000000000000000e+00  0.0000000000000000e+00 0.0000000000000000e+00 0.0000000000000000e+00  0.0000000000000000e+00 0.0000000000000000e+00 0.0000000000000000e+00  0.0000000000000000e+00 0.0000000000000000e+00 0.0000000000000000e+00  0.0000000000000000e+00 0.0000000000000000e+00 0.0000000000000000e+00  0.0000000000000000e+00 0.0000000000000000e+00 0.0000000000000000e+00  0.0000000000000000e+00 0.0000000000000000e+00 0.0000000000000000e+00  0.0000000000000000e+00 0.0000000000000000e+00 0.0000000000000000e+00  0.0000000000000000e+00 0.0000000000000000e+00 0.0000000000000000e+00  0.0000000000000000e+00 0.0000000000000000e+00 0.0000000000000000e+00  0.0000000000000000e+00 0.0000000000000000e+00 0.0000000000000000e+00  0.0000000000000000e+00 0.0000000000000000e+00 0.0000000000000000e+00  0.0000000000000000e+00 0.0000000000000000e+00 0.0000000000000000e+00  0.0000000000000000e+00 0.0000000000000000e+00 0.0000000000000000e+00  0.0000000000000000e+00 0.0000000000000000e+00 0.0000000000000000e+00  0.0000000000000000e+00 0.0000000000000000e+00 0.0000000000000000e+00  0.0000000000000000e+00 0.0000000000000000e+00 0.0000000000000000e+00  0.0000000000000000e+00 0.0000000000000000e+00 0.0000000000000000e+00  0.0000000000000000e+00 0.0000000000000000e+00 0.0000000000000000e+00  0.0000000000000000e+00 0.0000000000000000e+00 0.0000000000000000e+00  0.0000000000000000e+00 0.0000000000000000e+00 0.0000000000000000e+00  0.0000000000000000e+00 0.0000000000000000e+00 0.0000000000000000e+00  0.0000000000000000e+00 0.0000000000000000e+00 0.0000000000000000e+00  0.0000000000000000e+00 0.0000000000000000e+00 0.0000000000000000e+00  0.0000000000000000e+00 0.0000000000000000e+00 0.0000000000000000e+00  0.0000000000000000e+00 0.0000000000000000e+00 0.0000000000000000e+00  0.0000000000000000e+00 0.0000000000000000e+00 0.0000000000000000e+00  0.0000000000000000e+00 0.0000000000000000e+00 0.0000000000000000e+00  0.0000000000000000e+00 0.0000000000000000e+00 0.0000000000000000e+00  0.0000000000000000e+00 0.0000000000000000e+00 0.0000000000000000e+00  0.0000000000000000e+00 0.0000000000000000e+00 0.0000000000000000e+00  0.0000000000000000e+00 0.0000000000000000e+00 0.0000000000000000e+00  0.0000000000000000e+00 0.0000000000000000e+00 0.0000000000000000e+00  0.0000000000000000e+00 0.0000000000000000e+00 0.0000000000000000e+00  0.0000000000000000e+00 0.0000000000000000e+00 0.0000000000000000e+00  0.0000000000000000e+00 0.0000000000000000e+00 0.0000000000000000e+00  0.0000000000000000e+00 0.0000000000000000e+00 0.0000000000000000e+00  0.0000000000000000e+00 0.0000000000000000e+00 0.0000000000000000e+00  0.0000000000000000e+00 0.0000000000000000e+00 0.0000000000000000e+00  0.0000000000000000e+00 0.0000000000000000e+00 0.0000000000000000e+00  0.0000000000000000e+00 0.0000000000000000e+00 0.0000000000000000e+00  0.0000000000000000e+00 0.0000000000000000e+00 0.0000000000000000e+00  0.0000000000000000e+00 0.0000000000000000e+00 0.0000000000000000e+00  0.0000000000000000e+00 0.0000000000000000e+00 0.0000000000000000e+00  0.0000000000000000e+00 0.0000000000000000e+00 0.0000000000000000e+00  0.0000000000000000e+00 0.0000000000000000e+00 0.0000000000000000e+00  0.0000000000000000e+00 0.0000000000000000e+00 0.0000000000000000e+00  0.0000000000000000e+00 0.0000000000000000e+00 0.0000000000000000e+00  0.0000000000000000e+00 0.0000000000000000e+00 0.0000000000000000e+00  0.0000000000000000e+00 0.0000000000000000e+00 0.0000000000000000e+00  0.0000000000000000e+00 0.0000000000000000e+00 0.0000000000000000e+00  0.0000000000000000e+00 0.0000000000000000e+00 0.0000000000000000e+00  0.0000000000000000e+00 0.0000000000000000e+00 0.0000000000000000e+00  0.0000000000000000e+00 0.0000000000000000e+00 0.0000000000000000e+00  0.0000000000000000e+00 0.0000000000000000e+00 0.0000000000000000e+00  0.0000000000000000e+00 0.0000000000000000e+00 0.0000000000000000e+00  0.0000000000000000e+00 0.0000000000000000e+00 0.0000000000000000e+00  0.0000000000000000e+00 0.0000000000000000e+00 0.0000000000000000e+00  0.0000000000000000e+00 0.0000000000000000e+00 0.0000000000000000e+00  0.0000000000000000e+00 0.0000000000000000e+00 0.0000000000000000e+00  0.0000000000000000e+00 0.0000000000000000e+00 0.0000000000000000e+00  0.0000000000000000e+00 0.0000000000000000e+00 0.0000000000000000e+00  0.0000000000000000e+00 0.0000000000000000e+00 0.0000000000000000e+00  0.0000000000000000e+00 0.0000000000000000e+00 0.0000000000000000e+00  0.0000000000000000e+00 0.0000000000000000e+00 0.0000000000000000e+00  0.0000000000000000e+00 0.0000000000000000e+00 0.0000000000000000e+00  0.0000000000000000e+00 0.0000000000000000e+00 0.0000000000000000e+00  0.0000000000000000e+00 0.0000000000000000e+00 0.0000000000000000e+00  0.0000000000000000e+00 0.0000000000000000e+00 0.0000000000000000e+00  0.0000000000000000e+00 0.0000000000000000e+00 0.0000000000000000e+00  0.0000000000000000e+00 0.0000000000000000e+00 0.0000000000000000e+00  0.0000000000000000e+00 0.0000000000000000e+00 0.0000000000000000e+00  0.0000000000